 written on  1Nov2023 at 16:06:55 
   3.5717025864237320        6.4991244369867793        6.4991244369867793     
   6.4991244369867793        3.5717025864237320        6.4991244369867793     
   6.4991244369867793        6.4991244369867793        3.5717025864237320     
          10
          37
    2    2    3    1    3    1    1    2    1    1    1    3    2    2    1
    1    2    1    1    1    2    1    1    2    2    3    1    1    1    2
    1    1    3    1    3    2    2

   -2    0    1
    1    1    0.15160873E+00  0.11663179E-01
    2    1    0.19744263E-10 -0.11663179E-01
    3    1    0.17544980E+00 -0.11661022E-01
    4    1    0.32173899E-08  0.11661017E-01
    5    1    0.42364369E-01  0.24829831E-02
    6    1   -0.47884352E-09 -0.24829807E-02
    7    1    0.81700179E-01 -0.30101024E-01
    8    1   -0.87645494E-09  0.30101026E-01
    9    1    0.99790024E-01 -0.15539009E-01
   10    1   -0.21102875E-08  0.15539006E-01
    1    2   -0.88925910E-10 -0.11663178E-01
    2    2    0.15160873E+00 -0.11663176E-01
    3    2   -0.33454252E-08  0.11661018E-01
    4    2    0.17544980E+00  0.11661022E-01
    5    2    0.30972361E-09 -0.24829813E-02
    6    2    0.42364369E-01 -0.24829838E-02
    7    2   -0.53886905E-09  0.30101026E-01
    8    2    0.81700175E-01  0.30101024E-01
    9    2   -0.25964498E-09  0.15539005E-01
   10    2    0.99790024E-01  0.15539010E-01
    1    3    0.65511586E-01 -0.31754374E-01
    2    3   -0.23790109E-09  0.31754371E-01
    3    3   -0.67274619E-02  0.21265839E-01
    4    3    0.10426386E-08 -0.21265835E-01
    5    3    0.13763248E+00 -0.24157899E-01
    6    3   -0.84297863E-09  0.24157900E-01
    7    3   -0.51407480E-01  0.40985052E-01
    8    3    0.16474714E-08 -0.40985049E-01
    9    3   -0.30737972E-01 -0.90624613E-02
   10    3    0.16433257E-08  0.90624613E-02
    1    4    0.14286943E-08  0.31754372E-01
    2    4    0.65511586E-01  0.31754375E-01
    3    4   -0.50491825E-09 -0.21265837E-01
    4    4   -0.67274611E-02 -0.21265841E-01
    5    4    0.16170072E-08  0.24157901E-01
    6    4    0.13763248E+00  0.24157901E-01
    7    4   -0.26260248E-09 -0.40985050E-01
    8    4   -0.51407481E-01 -0.40985054E-01
    9    4    0.28778349E-09  0.90624594E-02
   10    4   -0.30737970E-01  0.90624587E-02
    1    5   -0.44238822E-01  0.24426454E-01
    2    5    0.66124785E-09 -0.24426455E-01
    3    5    0.16800169E+00  0.50373022E-01
    4    5    0.25695835E-09 -0.50373026E-01
    5    5   -0.10274768E-01  0.10518525E-01
    6    5   -0.47484828E-09 -0.10518525E-01
    7    5    0.11869613E+00 -0.73457849E-02
    8    5    0.18891521E-09  0.73457846E-02
    9    5    0.87743927E-01 -0.23984393E-02
   10    5    0.21436726E-08  0.23984375E-02
    1    6   -0.14320479E-09 -0.24426456E-01
    2    6   -0.44238822E-01 -0.24426454E-01
    3    6    0.50015483E-09 -0.50373026E-01
    4    6    0.16800169E+00 -0.50373023E-01
    5    6    0.41526390E-09 -0.10518525E-01
    6    6   -0.10274767E-01 -0.10518525E-01
    7    6   -0.42617197E-09  0.73457854E-02
    8    6    0.11869613E+00  0.73457845E-02
    9    6   -0.39356112E-08  0.23984376E-02
   10    6    0.87743928E-01  0.23984388E-02
    1    7   -0.62996642E-01  0.55863633E-01
    2    7    0.72471401E-09 -0.55863632E-01
    3    7    0.73079121E-01 -0.25666524E-01
    4    7    0.12875763E-08  0.25666521E-01
    5    7    0.32525753E-01 -0.11848571E-01
    6    7   -0.15969399E-08  0.11848572E-01
    7    7    0.31269173E-01  0.27248746E-01
    8    7    0.20797309E-08 -0.27248748E-01
    9    7   -0.54720544E-02 -0.80815298E-01
   10    7    0.10958519E-08  0.80815294E-01
    1    8   -0.11187634E-08 -0.55863632E-01
    2    8   -0.62996640E-01 -0.55863633E-01
    3    8   -0.53834852E-09  0.25666521E-01
    4    8    0.73079117E-01  0.25666524E-01
    5    8    0.15704623E-08  0.11848573E-01
    6    8    0.32525753E-01  0.11848571E-01
    7    8   -0.13189556E-08 -0.27248747E-01
    8    8    0.31269172E-01 -0.27248745E-01
    9    8   -0.23229682E-08  0.80815295E-01
   10    8   -0.54720520E-02  0.80815294E-01
    1    9    0.83794451E-01  0.13862006E-01
    2    9   -0.73035660E-09 -0.13861998E-01
    3    9   -0.73518857E-01 -0.85529919E-02
    4    9    0.18246959E-08  0.85529989E-02
    5    9    0.56638137E-01  0.24022486E-01
    6    9   -0.21958418E-08 -0.24022490E-01
    7    9   -0.37204730E-01  0.50993326E-01
    8    9   -0.10451134E-08 -0.50993324E-01
    9    9   -0.11742560E+00 -0.12633742E-01
   10    9   -0.19221971E-08  0.12633743E-01
    1   10   -0.47470982E-10 -0.13861996E-01
    2   10    0.83794454E-01 -0.13862006E-01
    3   10   -0.29194094E-08  0.85529954E-02
    4   10   -0.73518857E-01  0.85529899E-02
    5   10    0.27817165E-08 -0.24022489E-01
    6   10    0.56638137E-01 -0.24022485E-01
    7   10    0.16157640E-08 -0.50993322E-01
    8   10   -0.37204732E-01 -0.50993327E-01
    9   10   -0.74243887E-09  0.12633744E-01
   10   10   -0.11742560E+00  0.12633741E-01

   -2    1    0
    1    1   -0.56705739E-01  0.63158860E-01
    2    1   -0.16312438E-01 -0.11449185E-01
    3    1   -0.12173325E+00 -0.24436620E-01
    4    1    0.66783421E-01  0.39640135E-01
    5    1    0.55477264E-01  0.76492968E-01
    6    1    0.23639322E-01  0.14092797E-01
    7    1    0.64155176E-01  0.13374488E-01
    8    1    0.34747499E-01 -0.91814480E-01
    9    1    0.57827837E-01  0.85265715E-02
   10    1    0.15473114E-01 -0.50756206E-01
    1    2    0.16312435E-01 -0.11449183E-01
    2    2   -0.56705737E-01 -0.63158865E-01
    3    2   -0.66783418E-01  0.39640136E-01
    4    2   -0.12173325E+00  0.24436619E-01
    5    2   -0.23639322E-01  0.14092795E-01
    6    2    0.55477265E-01 -0.76492966E-01
    7    2   -0.34747499E-01 -0.91814479E-01
    8    2    0.64155177E-01 -0.13374485E-01
    9    2   -0.15473118E-01 -0.50756205E-01
   10    2    0.57827837E-01 -0.85265683E-02
    1    3    0.10528649E+00  0.78355660E-01
    2    3   -0.39687768E-01  0.48212882E-01
    3    3    0.11278538E-01 -0.20130807E-01
    4    3   -0.76382468E-01 -0.24632558E-01
    5    3   -0.24063766E-01 -0.10855309E-01
    6    3    0.64788724E-02 -0.58710081E-01
    7    3    0.63574853E-02 -0.13339061E-01
    8    3   -0.12744684E-01 -0.25245140E-01
    9    3    0.37978230E-01  0.33871317E-02
   10    3   -0.16207379E-01  0.16930934E-01
    1    4    0.39687765E-01  0.48212881E-01
    2    4    0.10528650E+00 -0.78355661E-01
    3    4    0.76382467E-01 -0.24632559E-01
    4    4    0.11278538E-01  0.20130807E-01
    5    4   -0.64788720E-02 -0.58710080E-01
    6    4   -0.24063765E-01  0.10855309E-01
    7    4    0.12744682E-01 -0.25245141E-01
    8    4    0.63574877E-02  0.13339061E-01
    9    4    0.16207379E-01  0.16930934E-01
   10    4    0.37978231E-01 -0.33871270E-02
    1    5   -0.49945350E-01 -0.51947045E-01
    2    5   -0.24978943E-01  0.11383803E-01
    3    5   -0.39840358E-01 -0.44955463E-01
    4    5    0.11643768E-01  0.88712392E-02
    5    5   -0.61320368E-05  0.16759390E-01
    6    5   -0.17290319E-04 -0.11540230E-01
    7    5    0.46930949E-01 -0.12097010E-01
    8    5    0.25388172E-02  0.12214498E-01
    9    5    0.20239902E-01 -0.88409787E-01
   10    5   -0.50818352E-02  0.11659859E-01
    1    6    0.24978944E-01  0.11383803E-01
    2    6   -0.49945351E-01  0.51947046E-01
    3    6   -0.11643768E-01  0.88712391E-02
    4    6   -0.39840357E-01  0.44955461E-01
    5    6    0.17290037E-04 -0.11540231E-01
    6    6   -0.61322323E-05 -0.16759389E-01
    7    6   -0.25388167E-02  0.12214497E-01
    8    6    0.46930948E-01  0.12097009E-01
    9    6    0.50818364E-02  0.11659862E-01
   10    6    0.20239903E-01  0.88409786E-01
    1    7    0.74988874E-01  0.97524617E-02
    2    7   -0.32826023E-02 -0.48895985E-02
    3    7   -0.41362135E-01 -0.55287654E-02
    4    7   -0.28786897E-01  0.24014464E-01
    5    7    0.18786491E+00  0.45195876E-01
    6    7    0.12794303E-02  0.89848392E-02
    7    7    0.27858641E-01 -0.21776344E-01
    8    7   -0.38202407E-02  0.47823721E-01
    9    7   -0.16315273E-01  0.78315968E-03
   10    7   -0.36142034E-01  0.18737682E-01
    1    8    0.32825990E-02 -0.48895980E-02
    2    8    0.74988870E-01 -0.97524601E-02
    3    8    0.28786897E-01  0.24014462E-01
    4    8   -0.41362132E-01  0.55287655E-02
    5    8   -0.12794305E-02  0.89848388E-02
    6    8    0.18786491E+00 -0.45195875E-01
    7    8    0.38202392E-02  0.47823721E-01
    8    8    0.27858642E-01  0.21776345E-01
    9    8    0.36142035E-01  0.18737683E-01
   10    8   -0.16315276E-01 -0.78315661E-03
    1    9    0.25001995E-01 -0.23075381E-01
    2    9    0.23793410E-01 -0.22196239E-01
    3    9    0.33068277E-01  0.14615468E-01
    4    9   -0.52523657E-01  0.94030044E-02
    5    9    0.57536346E-01  0.43533835E-01
    6    9   -0.32332454E-01 -0.13524259E-02
    7    9    0.66265831E-01  0.64166888E-01
    8    9    0.29996428E-01 -0.52629292E-01
    9    9    0.66024767E-01 -0.35158858E-01
   10    9    0.81993650E-01  0.20593745E-01
    1   10   -0.23793412E-01 -0.22196240E-01
    2   10    0.25001993E-01  0.23075382E-01
    3   10    0.52523659E-01  0.94030071E-02
    4   10    0.33068279E-01 -0.14615465E-01
    5   10    0.32332455E-01 -0.13524267E-02
    6   10    0.57536345E-01 -0.43533833E-01
    7   10   -0.29996428E-01 -0.52629293E-01
    8   10    0.66265833E-01 -0.64166885E-01
    9   10   -0.81993652E-01  0.20593746E-01
   10   10    0.66024770E-01  0.35158862E-01

   -2    1    1
    1    1   -0.11618491E-01  0.41726131E-01
    2    1   -0.14507787E-08 -0.41726133E-01
    3    1    0.15033538E+00  0.77644305E-02
    4    1    0.35529462E-08 -0.77644241E-02
    5    1    0.57756061E-02  0.54535510E-01
    6    1   -0.77373744E-09 -0.54535510E-01
    7    1    0.20786633E+00  0.14344429E-01
    8    1    0.98661874E-09 -0.14344432E-01
    9    1    0.18800983E+00 -0.17921691E-01
   10    1   -0.39146454E-09  0.17921689E-01
    1    2   -0.17479965E-09 -0.41726133E-01
    2    2   -0.11618492E-01 -0.41726131E-01
    3    2   -0.31713559E-08 -0.77644245E-02
    4    2    0.15033538E+00 -0.77644331E-02
    5    2    0.11363466E-08 -0.54535510E-01
    6    2    0.57756079E-02 -0.54535509E-01
    7    2    0.72180203E-09 -0.14344431E-01
    8    2    0.20786633E+00 -0.14344431E-01
    9    2   -0.42321985E-08  0.17921687E-01
   10    2    0.18800983E+00  0.17921688E-01
    1    3    0.81370735E-01  0.12827910E-01
    2    3    0.96391361E-09 -0.12827906E-01
    3    3   -0.71383736E-01  0.11777575E-01
    4    3    0.57130093E-09 -0.11777577E-01
    5    3   -0.61941080E-01 -0.26478778E-02
    6    3    0.70058946E-09  0.26478748E-02
    7    3    0.78038217E-01  0.88130312E-02
    8    3   -0.79366618E-09 -0.88130330E-02
    9    3   -0.49795922E-01 -0.67065694E-02
   10    3    0.11234311E-09  0.67065694E-02
    1    4    0.55249132E-09 -0.12827906E-01
    2    4    0.81370734E-01 -0.12827907E-01
    3    4    0.20687496E-08 -0.11777574E-01
    4    4   -0.71383734E-01 -0.11777575E-01
    5    4   -0.13974311E-09  0.26478735E-02
    6    4   -0.61941080E-01  0.26478789E-02
    7    4    0.18428478E-08 -0.88130343E-02
    8    4    0.78038216E-01 -0.88130308E-02
    9    4    0.99545004E-09  0.67065714E-02
   10    4   -0.49795921E-01  0.67065708E-02
    1    5    0.11234714E+00  0.11199942E-02
    2    5    0.90171754E-09 -0.11199970E-02
    3    5   -0.89693119E-03  0.10075281E-02
    4    5    0.37326609E-09 -0.10075215E-02
    5    5   -0.21464652E-01  0.43752156E-02
    6    5   -0.94326972E-11 -0.43752168E-02
    7    5    0.52608739E-01  0.36740869E-01
    8    5    0.12224016E-08 -0.36740869E-01
    9    5   -0.78470213E-01  0.34339479E-01
   10    5   -0.10985008E-08 -0.34339481E-01
    1    6   -0.54270071E-09 -0.11199978E-02
    2    6    0.11234714E+00 -0.11199955E-02
    3    6    0.19330354E-09 -0.10075227E-02
    4    6   -0.89693067E-03 -0.10075293E-02
    5    6    0.45465287E-10 -0.43752176E-02
    6    6   -0.21464652E-01 -0.43752156E-02
    7    6   -0.25012012E-08 -0.36740869E-01
    8    6    0.52608739E-01 -0.36740869E-01
    9    6   -0.17657513E-08 -0.34339481E-01
   10    6   -0.78470213E-01 -0.34339479E-01
    1    7    0.14858697E+00  0.15771029E-01
    2    7    0.24606727E-08 -0.15771034E-01
    3    7   -0.25369141E-01  0.28181480E-01
    4    7   -0.25550439E-08 -0.28181478E-01
    5    7    0.15137271E+00  0.14445055E-01
    6    7   -0.29595163E-09 -0.14445052E-01
    7    7    0.37914032E-01 -0.69936276E-02
    8    7   -0.74348265E-09  0.69936290E-02
    9    7   -0.17755573E+00 -0.39629967E-01
   10    7   -0.12552922E-08  0.39629967E-01
    1    8   -0.71845574E-09 -0.15771034E-01
    2    8    0.14858697E+00 -0.15771027E-01
    3    8    0.32660269E-08 -0.28181479E-01
    4    8   -0.25369141E-01 -0.28181480E-01
    5    8   -0.77257786E-09 -0.14445052E-01
    6    8    0.15137271E+00 -0.14445056E-01
    7    8   -0.13151925E-08  0.69936271E-02
    8    8    0.37914030E-01  0.69936277E-02
    9    8    0.10014670E-08  0.39629966E-01
   10    8   -0.17755573E+00  0.39629970E-01
    1    9    0.87417926E-01 -0.82044473E-02
    2    9    0.25996122E-08  0.82044487E-02
    3    9    0.19610083E+00  0.26695308E-01
    4    9   -0.23808575E-08 -0.26695307E-01
    5    9   -0.71222866E-01  0.38648526E-02
    6    9   -0.23620700E-08 -0.38648499E-02
    7    9   -0.24936652E-02 -0.54060180E-01
    8    9    0.19263721E-08  0.54060185E-01
    9    9    0.48637238E-01 -0.38990832E-01
   10    9    0.28063413E-08  0.38990832E-01
    1   10   -0.64821916E-08  0.82044478E-02
    2   10    0.87417926E-01  0.82044497E-02
    3   10    0.31885658E-08 -0.26695306E-01
    4   10    0.19610083E+00 -0.26695311E-01
    5   10   -0.53141853E-09 -0.38648498E-02
    6   10   -0.71222865E-01 -0.38648533E-02
    7   10   -0.22291594E-08  0.54060185E-01
    8   10   -0.24936633E-02  0.54060178E-01
    9   10   -0.43577670E-08  0.38990832E-01
   10   10    0.48637239E-01  0.38990832E-01

   -1   -1    1
    1    1   -0.63222379E-02 -0.66937963E-01
    2    1    0.38772317E-02 -0.27763373E-01
    3    1    0.10191994E-01  0.32399151E-02
    4    1    0.63008537E-01  0.17879334E-01
    5    1    0.62549625E-01 -0.56318834E-01
    6    1    0.82075280E-02 -0.11914604E-01
    7    1   -0.12236279E+00 -0.83494683E-01
    8    1    0.32220121E-01 -0.94905803E-01
    9    1   -0.73727096E-01 -0.24508323E-02
   10    1    0.82269405E-01 -0.91220908E-02
    1    2   -0.38772339E-02 -0.27763372E-01
    2    2   -0.63222362E-02  0.66937959E-01
    3    2   -0.63008535E-01  0.17879335E-01
    4    2    0.10191995E-01 -0.32399157E-02
    5    2   -0.82075285E-02 -0.11914605E-01
    6    2    0.62549626E-01  0.56318836E-01
    7    2   -0.32220121E-01 -0.94905803E-01
    8    2   -0.12236278E+00  0.83494686E-01
    9    2   -0.82269408E-01 -0.91220898E-02
   10    2   -0.73727097E-01  0.24508351E-02
    1    3   -0.12271862E+00  0.72684720E-01
    2    3    0.76891346E-02  0.59240394E-01
    3    3   -0.31142589E-01  0.25770501E-01
    4    3    0.53847031E-01  0.88786761E-02
    5    3    0.59719031E-01  0.14231450E+00
    6    3   -0.23942665E-01  0.46179285E-01
    7    3    0.37492742E-01 -0.96484532E-02
    8    3   -0.30534935E-01  0.19421786E-02
    9    3    0.54979037E-01  0.50643354E-01
   10    3   -0.30222021E-01 -0.31861358E-01
    1    4   -0.76891379E-02  0.59240393E-01
    2    4   -0.12271861E+00 -0.72684721E-01
    3    4   -0.53847032E-01  0.88786742E-02
    4    4   -0.31142588E-01 -0.25770502E-01
    5    4    0.23942666E-01  0.46179287E-01
    6    4    0.59719031E-01 -0.14231450E+00
    7    4    0.30534934E-01  0.19421784E-02
    8    4    0.37492744E-01  0.96484540E-02
    9    4    0.30222021E-01 -0.31861357E-01
   10    4    0.54979038E-01 -0.50643350E-01
    1    5   -0.40911348E-01 -0.33579206E-01
    2    5   -0.15694339E-01 -0.48653039E-01
    3    5    0.27971154E-01 -0.30412838E-01
    4    5    0.15476694E-01  0.73963505E-02
    5    5    0.22601419E-01 -0.24162623E-01
    6    5    0.34076002E-02 -0.26734669E-01
    7    5    0.21929779E+00  0.23763689E-02
    8    5    0.87417058E-02  0.26506002E-01
    9    5   -0.84033521E-01  0.73589877E-02
   10    5    0.18891737E-02 -0.46465460E-02
    1    6    0.15694340E-01 -0.48653039E-01
    2    6   -0.40911349E-01  0.33579207E-01
    3    6   -0.15476694E-01  0.73963504E-02
    4    6    0.27971155E-01  0.30412836E-01
    5    6   -0.34076004E-02 -0.26734669E-01
    6    6    0.22601419E-01  0.24162624E-01
    7    6   -0.87417051E-02  0.26506001E-01
    8    6    0.21929779E+00 -0.23763701E-02
    9    6   -0.18891724E-02 -0.46465439E-02
   10    6   -0.84033521E-01 -0.73589882E-02
    1    7    0.15705306E+00  0.53408126E-01
    2    7   -0.12616052E-01 -0.13215319E-01
    3    7    0.57085741E-01  0.71503465E-02
    4    7   -0.45120285E-01 -0.15273204E-01
    5    7   -0.36586024E-01  0.18333199E-01
    6    7    0.48706760E-01 -0.71249350E-02
    7    7   -0.57912639E-01 -0.24405588E-01
    8    7    0.13859049E-01  0.90664361E-02
    9    7    0.35878899E-01  0.11111041E+00
   10    7   -0.27507225E-01  0.90544161E-03
    1    8    0.12616050E-01 -0.13215319E-01
    2    8    0.15705306E+00 -0.53408125E-01
    3    8    0.45120285E-01 -0.15273206E-01
    4    8    0.57085744E-01 -0.71503463E-02
    5    8   -0.48706760E-01 -0.71249356E-02
    6    8   -0.36586025E-01 -0.18333198E-01
    7    8   -0.13859050E-01  0.90664360E-02
    8    8   -0.57912639E-01  0.24405588E-01
    9    8    0.27507226E-01  0.90544197E-03
   10    8    0.35878896E-01 -0.11111041E+00
    1    9    0.33533978E-01  0.21297193E-01
    2    9    0.55072281E-01  0.26406917E-01
    3    9   -0.10080972E+00 -0.29733714E-01
    4    9    0.97070989E-02  0.59610235E-01
    5    9   -0.33039528E-01 -0.10800320E-01
    6    9    0.14350622E-01  0.77202877E-01
    7    9    0.18305251E-01 -0.86364169E-01
    8    9    0.56268158E-01  0.56449818E-01
    9    9    0.50315479E-01  0.22089147E-01
   10    9    0.15446246E-01 -0.31290676E-02
    1   10   -0.55072282E-01  0.26406917E-01
    2   10    0.33533976E-01 -0.21297192E-01
    3   10   -0.97070974E-02  0.59610238E-01
    4   10   -0.10080972E+00  0.29733717E-01
    5   10   -0.14350621E-01  0.77202876E-01
    6   10   -0.33039529E-01  0.10800322E-01
    7   10   -0.56268158E-01  0.56449817E-01
    8   10    0.18305253E-01  0.86364171E-01
    9   10   -0.15446248E-01 -0.31290656E-02
   10   10    0.50315482E-01 -0.22089143E-01

   -1   -1    2
    1    1   -0.11618491E-01 -0.41726133E-01
    2    1   -0.10769982E-08  0.41726131E-01
    3    1    0.81370735E-01 -0.12827905E-01
    4    1    0.22444593E-08  0.12827911E-01
    5    1    0.11234714E+00 -0.11199982E-02
    6    1   -0.17594999E-08  0.11199939E-02
    7    1    0.14858697E+00 -0.15771035E-01
    8    1    0.13810185E-08  0.15771028E-01
    9    1    0.87417926E-01  0.82044453E-02
   10    1    0.12128750E-08 -0.82044499E-02
    1    2   -0.54858023E-09  0.41726131E-01
    2    2   -0.11618492E-01  0.41726133E-01
    3    2   -0.72805411E-09  0.12827911E-01
    4    2    0.81370734E-01  0.12827902E-01
    5    2    0.21185168E-08  0.11199930E-02
    6    2    0.11234714E+00  0.11199995E-02
    7    2    0.36119858E-09  0.15771028E-01
    8    2    0.14858697E+00  0.15771033E-01
    9    2   -0.50954544E-08 -0.82044507E-02
   10    2    0.87417926E-01 -0.82044476E-02
    1    3    0.15033538E+00 -0.77644252E-02
    2    3    0.22317748E-08  0.77644299E-02
    3    3   -0.71383736E-01 -0.11777576E-01
    4    3    0.43375916E-09  0.11777574E-01
    5    3   -0.89693119E-03 -0.10075225E-02
    6    3   -0.69900582E-09  0.10075282E-02
    7    3   -0.25369141E-01 -0.28181480E-01
    8    3   -0.10378889E-08  0.28181479E-01
    9    3    0.19610083E+00 -0.26695307E-01
   10    3   -0.28147964E-08  0.26695307E-01
    1    4   -0.18501849E-08  0.77644294E-02
    2    4    0.15033538E+00  0.77644278E-02
    3    4    0.22062913E-08  0.11777577E-01
    4    4   -0.71383734E-01  0.11777576E-01
    5    4    0.12655754E-08  0.10075270E-02
    6    4   -0.89693067E-03  0.10075238E-02
    7    4    0.17488718E-08  0.28181479E-01
    8    4   -0.25369141E-01  0.28181480E-01
    9    4    0.36225046E-08  0.26695308E-01
   10    4    0.19610083E+00  0.26695309E-01
    1    5    0.57756061E-02 -0.54535510E-01
    2    5    0.17127707E-08  0.54535511E-01
    3    5   -0.61941080E-01  0.26478744E-02
    4    5    0.14531766E-08 -0.26478768E-02
    5    5   -0.21464652E-01 -0.43752173E-02
    6    5    0.29143899E-09  0.43752160E-02
    7    5    0.15137271E+00 -0.14445052E-01
    8    5   -0.45524773E-10  0.14445055E-01
    9    5   -0.71222866E-01 -0.38648510E-02
   10    5   -0.27401387E-08  0.38648515E-02
    1    6   -0.13501617E-08  0.54535510E-01
    2    6    0.57756079E-02  0.54535509E-01
    3    6   -0.89233006E-09 -0.26478782E-02
    4    6   -0.61941080E-01 -0.26478756E-02
    5    6   -0.25540641E-09  0.43752152E-02
    6    6   -0.21464652E-01  0.43752173E-02
    7    6   -0.10230047E-08  0.14445055E-01
    8    6    0.15137271E+00  0.14445053E-01
    9    6   -0.15334983E-09  0.38648516E-02
   10    6   -0.71222865E-01  0.38648517E-02
    1    7    0.20786633E+00 -0.14344431E-01
    2    7    0.23274823E-08  0.14344430E-01
    3    7    0.78038217E-01 -0.88130329E-02
    4    7   -0.23553699E-08  0.88130326E-02
    5    7    0.52608739E-01 -0.36740869E-01
    6    7    0.12167666E-08  0.36740869E-01
    7    7    0.37914032E-01  0.69936280E-02
    8    7   -0.58685705E-09 -0.69936267E-02
    9    7   -0.24936652E-02  0.54060185E-01
   10    7   -0.20485628E-08 -0.54060181E-01
    1    8   -0.61906159E-09  0.14344430E-01
    2    8    0.20786633E+00  0.14344432E-01
    3    8    0.34045516E-08  0.88130313E-02
    4    8    0.78038216E-01  0.88130325E-02
    5    8   -0.24955662E-08  0.36740869E-01
    6    8    0.52608739E-01  0.36740868E-01
    7    8   -0.14718182E-08 -0.69936286E-02
    8    8    0.37914030E-01 -0.69936281E-02
    9    8    0.17457756E-08 -0.54060181E-01
   10    8   -0.24936633E-02 -0.54060183E-01
    1    9    0.18800983E+00  0.17921691E-01
    2    9    0.88600914E-09 -0.17921687E-01
    3    9   -0.49795922E-01  0.67065712E-02
    4    9    0.52384206E-09 -0.67065696E-02
    5    9   -0.78470213E-01 -0.34339479E-01
    6    9   -0.10932825E-08  0.34339480E-01
    7    9   -0.17755573E+00  0.39629967E-01
    8    9    0.24616569E-08 -0.39629967E-01
    9    9    0.48637238E-01  0.38990832E-01
   10    9    0.27116899E-08 -0.38990832E-01
    1   10   -0.55096721E-08 -0.17921688E-01
    2   10    0.18800983E+00 -0.17921689E-01
    3   10    0.58395126E-09 -0.67065676E-02
    4   10   -0.49795921E-01 -0.67065726E-02
    5   10   -0.17709696E-08  0.34339480E-01
    6   10   -0.78470213E-01  0.34339479E-01
    7   10   -0.27154822E-08 -0.39629967E-01
    8   10   -0.17755573E+00 -0.39629969E-01
    9   10   -0.42631156E-08 -0.38990832E-01
   10   10    0.48637239E-01 -0.38990832E-01

   -1    0    0
    1    1   -0.91957801E-01 -0.68250216E-01
    2    1   -0.33497327E-01  0.68726674E-03
    3    1   -0.60979272E-01 -0.29980722E-01
    4    1    0.18181923E-01  0.15643549E-01
    5    1   -0.53988920E-01  0.52794529E-01
    6    1    0.13779737E-01  0.25638904E-01
    7    1    0.52376992E-01  0.21633134E-01
    8    1   -0.62689265E-01  0.97873855E-03
    9    1   -0.78802096E-01 -0.93711972E-01
   10    1    0.40819755E-02  0.29296063E-02
    1    2    0.33497328E-01  0.68726525E-03
    2    2   -0.91957800E-01  0.68250217E-01
    3    2   -0.18181924E-01  0.15643547E-01
    4    2   -0.60979270E-01  0.29980725E-01
    5    2   -0.13779739E-01  0.25638906E-01
    6    2   -0.53988919E-01 -0.52794531E-01
    7    2    0.62689268E-01  0.97873684E-03
    8    2    0.52376994E-01 -0.21633136E-01
    9    2   -0.40819732E-02  0.29296057E-02
   10    2   -0.78802097E-01  0.93711968E-01
    1    3    0.64636375E-02  0.83664925E-01
    2    3   -0.75367673E-02  0.79888140E-02
    3    3    0.15248698E-01 -0.32064671E-02
    4    3    0.80072735E-01  0.44885554E-02
    5    3    0.56320761E-02  0.65442267E-01
    6    3    0.16775570E-02 -0.46310859E-01
    7    3    0.70106642E-02 -0.18628306E-01
    8    3    0.19852814E-01  0.36367442E-01
    9    3   -0.40633941E-01  0.30258381E-01
   10    3    0.13032430E-01  0.18992605E-01
    1    4    0.75367699E-02  0.79888138E-02
    2    4    0.64636363E-02 -0.83664923E-01
    3    4   -0.80072734E-01  0.44885553E-02
    4    4    0.15248697E-01  0.32064688E-02
    5    4   -0.16775547E-02 -0.46310859E-01
    6    4    0.56320750E-02 -0.65442267E-01
    7    4   -0.19852815E-01  0.36367442E-01
    8    4    0.70106606E-02  0.18628305E-01
    9    4   -0.13032428E-01  0.18992608E-01
   10    4   -0.40633942E-01 -0.30258383E-01
    1    5    0.10572287E+00 -0.88005740E-01
    2    5   -0.48328808E-02  0.11124639E-02
    3    5   -0.89198763E-01 -0.74181895E-01
    4    5   -0.10306549E-01 -0.39886373E-01
    5    5   -0.84346174E-02 -0.19030753E-01
    6    5   -0.12991448E-01  0.64051812E-02
    7    5   -0.14670534E+00  0.33213444E-01
    8    5    0.20438306E-01 -0.41639609E-01
    9    5   -0.15483247E+00  0.34817105E-01
   10    5    0.57153493E-01  0.19213422E-01
    1    6    0.48328820E-02  0.11124624E-02
    2    6    0.10572287E+00  0.88005738E-01
    3    6    0.10306548E-01 -0.39886373E-01
    4    6   -0.89198761E-01  0.74181896E-01
    5    6    0.12991448E-01  0.64051816E-02
    6    6   -0.84346164E-02  0.19030753E-01
    7    6   -0.20438306E-01 -0.41639608E-01
    8    6   -0.14670534E+00 -0.33213444E-01
    9    6   -0.57153494E-01  0.19213422E-01
   10    6   -0.15483247E+00 -0.34817105E-01
    1    7   -0.90312028E-01 -0.36223867E-01
    2    7   -0.23001360E-02 -0.14600105E-01
    3    7   -0.78225507E-01 -0.47026714E-01
    4    7   -0.26932233E-01 -0.44170474E-01
    5    7   -0.13143732E-01  0.27705437E-01
    6    7   -0.14960090E-02 -0.47195680E-02
    7    7    0.38607933E-01  0.39125611E-01
    8    7    0.31040303E-02  0.61753742E-02
    9    7   -0.44348979E-02 -0.79707959E-01
   10    7    0.39799192E-01  0.10813604E-01
    1    8    0.23001396E-02 -0.14600106E-01
    2    8   -0.90312028E-01  0.36223866E-01
    3    8    0.26932233E-01 -0.44170473E-01
    4    8   -0.78225508E-01  0.47026715E-01
    5    8    0.14960090E-02 -0.47195680E-02
    6    8   -0.13143731E-01 -0.27705438E-01
    7    8   -0.31040286E-02  0.61753736E-02
    8    8    0.38607932E-01 -0.39125610E-01
    9    8   -0.39799192E-01  0.10813602E-01
   10    8   -0.44348972E-02  0.79707961E-01
    1    9   -0.11380442E+00 -0.39480371E-01
    2    9   -0.26500397E-01  0.49801214E-01
    3    9    0.18729535E+00  0.57489593E-01
    4    9   -0.29964963E-01  0.23578242E-01
    5    9    0.40072645E-02 -0.92810671E-02
    6    9   -0.20589475E-01 -0.17313172E-01
    7    9   -0.11851063E+00  0.27841937E-01
    8    9   -0.10356503E-01  0.66883966E-01
    9    9    0.52152102E-01  0.21689780E-01
   10    9   -0.47503217E-01  0.10634122E-01
    1   10    0.26500400E-01  0.49801213E-01
    2   10   -0.11380442E+00  0.39480369E-01
    3   10    0.29964962E-01  0.23578240E-01
    4   10    0.18729535E+00 -0.57489595E-01
    5   10    0.20589475E-01 -0.17313172E-01
    6   10    0.40072649E-02  0.92810667E-02
    7   10    0.10356504E-01  0.66883966E-01
    8   10   -0.11851063E+00 -0.27841939E-01
    9   10    0.47503219E-01  0.10634120E-01
   10   10    0.52152098E-01 -0.21689783E-01

   -1    0    1
    1    1   -0.23709867E-01 -0.34248064E-01
    2    1   -0.26548250E-01 -0.34248065E-01
    3    1    0.11214409E-01 -0.32775082E-01
    4    1    0.38509266E-03 -0.47555731E-01
    5    1   -0.91215531E-01  0.10576885E-01
    6    1    0.58541540E-02  0.39544456E-01
    7    1    0.48373098E-01 -0.18815057E-01
    8    1   -0.40623805E-01  0.57924415E-01
    9    1    0.19857217E-02  0.24256228E-01
   10    1   -0.23546025E-01 -0.16085173E-01
    1    2    0.26548251E-01 -0.34248066E-01
    2    2   -0.23709866E-01  0.34248063E-01
    3    2   -0.38508989E-03 -0.47555731E-01
    4    2    0.11214409E-01  0.32775078E-01
    5    2   -0.58541551E-02  0.39544457E-01
    6    2   -0.91215531E-01 -0.10576886E-01
    7    2    0.40623804E-01  0.57924415E-01
    8    2    0.48373095E-01  0.18815057E-01
    9    2    0.23546026E-01 -0.16085173E-01
   10    2    0.19857229E-02 -0.24256222E-01
    1    3    0.11214408E-01 -0.47555733E-01
    2    3    0.38509035E-03 -0.32775079E-01
    3    3   -0.19520673E+00  0.49976834E-01
    4    3    0.15005394E+00  0.49976835E-01
    5    3   -0.15385842E-02 -0.20800663E-01
    6    3   -0.22907774E-01 -0.60671558E-01
    7    3    0.49664728E-01 -0.17152076E-01
    8    3    0.29426070E-01 -0.14090144E-01
    9    3    0.38668937E-01  0.65654022E-01
   10    3   -0.33319949E-02  0.35284606E-01
    1    4   -0.38509449E-03 -0.32775079E-01
    2    4    0.11214411E-01  0.47555729E-01
    3    4   -0.15005394E+00  0.49976832E-01
    4    4   -0.19520673E+00 -0.49976835E-01
    5    4    0.22907775E-01 -0.60671558E-01
    6    4   -0.15385832E-02  0.20800664E-01
    7    4   -0.29426069E-01 -0.14090144E-01
    8    4    0.49664727E-01  0.17152073E-01
    9    4    0.33319950E-02  0.35284606E-01
   10    4    0.38668936E-01 -0.65654024E-01
    1    5   -0.91215530E-01  0.39544455E-01
    2    5    0.58541553E-02  0.10576884E-01
    3    5   -0.15385840E-02 -0.60671559E-01
    4    5   -0.22907774E-01 -0.20800665E-01
    5    5   -0.15479000E-01 -0.88909380E-02
    6    5   -0.20897008E-01 -0.88909379E-02
    7    5   -0.31033269E-01 -0.17918363E-01
    8    5   -0.81147821E-02  0.50044109E-01
    9    5    0.27353245E-01  0.23072272E-01
   10    5    0.24343865E-01 -0.63003475E-01
    1    6   -0.58541525E-02  0.10576884E-01
    2    6   -0.91215530E-01 -0.39544456E-01
    3    6    0.22907775E-01 -0.20800663E-01
    4    6   -0.15385842E-02  0.60671559E-01
    5    6    0.20897009E-01 -0.88909385E-02
    6    6   -0.15478999E-01  0.88909381E-02
    7    6    0.81147836E-02  0.50044109E-01
    8    6   -0.31033268E-01  0.17918364E-01
    9    6   -0.24343865E-01 -0.63003477E-01
   10    6    0.27353245E-01 -0.23072270E-01
    1    7    0.48373099E-01  0.57924415E-01
    2    7   -0.40623806E-01 -0.18815058E-01
    3    7    0.49664726E-01 -0.14090145E-01
    4    7    0.29426069E-01 -0.17152076E-01
    5    7   -0.31033267E-01  0.50044109E-01
    6    7   -0.81147835E-02 -0.17918364E-01
    7    7   -0.78451384E-01  0.21342793E-02
    8    7    0.22608015E-01  0.21342780E-02
    9    7   -0.23905975E-01  0.22685647E-01
   10    7    0.46487058E-02  0.17603386E-01
    1    8    0.40623805E-01 -0.18815058E-01
    2    8    0.48373099E-01 -0.57924416E-01
    3    8   -0.29426069E-01 -0.17152076E-01
    4    8    0.49664727E-01  0.14090143E-01
    5    8    0.81147827E-02 -0.17918364E-01
    6    8   -0.31033269E-01 -0.50044107E-01
    7    8   -0.22608014E-01  0.21342787E-02
    8    8   -0.78451383E-01 -0.21342787E-02
    9    8   -0.46487059E-02  0.17603387E-01
   10    8   -0.23905973E-01 -0.22685650E-01
    1    9    0.19857219E-02 -0.16085174E-01
    2    9   -0.23546026E-01  0.24256222E-01
    3    9    0.38668936E-01  0.35284604E-01
    4    9   -0.33319947E-02  0.65654024E-01
    5    9    0.27353246E-01 -0.63003477E-01
    6    9    0.24343864E-01  0.23072271E-01
    7    9   -0.23905975E-01  0.17603386E-01
    8    9    0.46487050E-02  0.22685647E-01
    9    9    0.17164037E+00  0.55669387E-02
   10    9   -0.10237447E+00  0.55669379E-02
    1   10    0.23546024E-01  0.24256227E-01
    2   10    0.19857212E-02  0.16085176E-01
    3   10    0.33319957E-02  0.65654022E-01
    4   10    0.38668936E-01 -0.35284606E-01
    5   10   -0.24343866E-01  0.23072272E-01
    6   10    0.27353244E-01  0.63003479E-01
    7   10   -0.46487029E-02  0.22685646E-01
    8   10   -0.23905977E-01 -0.17603387E-01
    9   10    0.10237447E+00  0.55669396E-02
   10   10    0.17164037E+00 -0.55669380E-02

   -1    0    2
    1    1    0.15160873E+00 -0.11663179E-01
    2    1    0.41524324E-09  0.11663178E-01
    3    1    0.65511586E-01  0.31754371E-01
    4    1    0.13749911E-09 -0.31754375E-01
    5    1   -0.44238822E-01 -0.24426455E-01
    6    1   -0.71822153E-09  0.24426455E-01
    7    1   -0.62996642E-01 -0.55863632E-01
    8    1    0.48212929E-09  0.55863633E-01
    9    1    0.83794451E-01 -0.13862003E-01
   10    1   -0.20519369E-08  0.13862000E-01
    1    2   -0.48442506E-09  0.11663179E-01
    2    2    0.15160873E+00  0.11663176E-01
    3    2    0.10532945E-08 -0.31754373E-01
    4    2    0.65511586E-01 -0.31754372E-01
    5    2    0.12362645E-08  0.24426454E-01
    6    2   -0.44238822E-01  0.24426455E-01
    7    2   -0.87617878E-09  0.55863633E-01
    8    2   -0.62996640E-01  0.55863632E-01
    9    2    0.12741093E-08  0.13862002E-01
   10    2    0.83794454E-01  0.13862002E-01
    1    3    0.17544980E+00  0.11661016E-01
    2    3   -0.27706788E-08 -0.11661024E-01
    3    3   -0.67274619E-02 -0.21265836E-01
    4    3    0.45723563E-08  0.21265840E-01
    5    3    0.16800169E+00 -0.50373026E-01
    6    3   -0.12835594E-08  0.50373022E-01
    7    3    0.73079121E-01  0.25666522E-01
    8    3    0.15621006E-09 -0.25666523E-01
    9    3   -0.73518857E-01  0.85529938E-02
   10    3   -0.41066807E-08 -0.85529935E-02
    1    4    0.26426430E-08 -0.11661023E-01
    2    4    0.17544980E+00 -0.11661016E-01
    3    4   -0.40346360E-08  0.21265839E-01
    4    4   -0.67274611E-02  0.21265837E-01
    5    4    0.20406726E-08  0.50373022E-01
    6    4    0.16800169E+00  0.50373027E-01
    7    4    0.59301768E-09 -0.25666523E-01
    8    4    0.73079117E-01 -0.25666522E-01
    9    4    0.30119672E-08 -0.85529971E-02
   10    4   -0.73518857E-01 -0.85529917E-02
    1    5    0.42364369E-01 -0.24829781E-02
    2    5    0.10850892E-08  0.24829862E-02
    3    5    0.13763248E+00  0.24157901E-01
    4    5    0.70276339E-09 -0.24157900E-01
    5    5   -0.10274768E-01 -0.10518525E-01
    6    5   -0.15830017E-09  0.10518525E-01
    7    5    0.32525753E-01  0.11848572E-01
    8    5   -0.50112066E-09 -0.11848571E-01
    9    5    0.56638137E-01 -0.24022490E-01
   10    5    0.40131314E-09  0.24022486E-01
    1    6   -0.12542090E-08  0.24829857E-02
    2    6    0.42364369E-01  0.24829788E-02
    3    6    0.71265226E-10 -0.24157899E-01
    4    6    0.13763248E+00 -0.24157902E-01
    5    6    0.98715747E-10  0.10518525E-01
    6    6   -0.10274767E-01  0.10518525E-01
    7    6    0.47464316E-09 -0.11848571E-01
    8    6    0.32525753E-01 -0.11848573E-01
    9    6    0.18456167E-09  0.24022486E-01
   10    6    0.56638137E-01  0.24022488E-01
    1    7    0.81700179E-01  0.30101028E-01
    2    7   -0.33193269E-08 -0.30101023E-01
    3    7   -0.51407480E-01 -0.40985050E-01
    4    7    0.38263036E-08  0.40985052E-01
    5    7    0.11869613E+00  0.73457852E-02
    6    7   -0.90637710E-09 -0.73457851E-02
    7    7    0.31269173E-01 -0.27248747E-01
    8    7    0.96096944E-10  0.27248746E-01
    9    7   -0.37204730E-01 -0.50993322E-01
   10    7   -0.93447336E-09  0.50993326E-01
    1    8    0.19040027E-08 -0.30101023E-01
    2    8    0.81700175E-01 -0.30101027E-01
    3    8   -0.24414347E-08  0.40985051E-01
    4    8   -0.51407481E-01  0.40985052E-01
    5    8    0.66912025E-09 -0.73457843E-02
    6    8    0.11869613E+00 -0.73457849E-02
    7    8    0.66467826E-09  0.27248747E-01
    8    8    0.31269172E-01  0.27248747E-01
    9    8    0.15051238E-08  0.50993328E-01
   10    8   -0.37204732E-01  0.50993323E-01
    1    9    0.99790024E-01  0.15539009E-01
    2    9   -0.45299487E-10 -0.15539005E-01
    3    9   -0.30737972E-01  0.90624620E-02
    4    9    0.22200579E-08 -0.90624587E-02
    5    9    0.87743927E-01  0.23984388E-02
    6    9   -0.67560862E-09 -0.23984381E-02
    7    9   -0.54720544E-02  0.80815296E-01
    8    9   -0.12343106E-08 -0.80815297E-01
    9    9   -0.11742560E+00  0.12633742E-01
   10    9   -0.47234564E-08 -0.12633745E-01
    1   10   -0.23246333E-08 -0.15539006E-01
    2   10    0.99790024E-01 -0.15539010E-01
    3   10   -0.28894850E-09 -0.90624605E-02
    4   10   -0.30737970E-01 -0.90624594E-02
    5   10   -0.11163300E-08 -0.23984380E-02
    6   10    0.87743928E-01 -0.23984383E-02
    7   10    0.71944521E-11 -0.80815296E-01
    8   10   -0.54720520E-02 -0.80815292E-01
    9   10    0.20588203E-08 -0.12633743E-01
   10   10   -0.11742560E+00 -0.12633740E-01

   -1    1   -1
    1    1    0.94703847E-01  0.81487437E-02
    2    1    0.10441587E-09 -0.81487433E-02
    3    1    0.36164892E+00  0.72048015E-01
    4    1    0.30821827E-08 -0.72048014E-01
    5    1    0.75171916E-01 -0.25880387E-01
    6    1   -0.10862935E-08  0.25880385E-01
    7    1    0.52683827E-01  0.52500781E-01
    8    1    0.54069918E-09 -0.52500783E-01
    9    1    0.14497873E+00  0.77398162E-01
   10    1   -0.17537111E-08 -0.77398165E-01
    1    2    0.28209480E-09 -0.81487423E-02
    2    2    0.94703846E-01 -0.81487410E-02
    3    2   -0.27285066E-08 -0.72048014E-01
    4    2    0.36164892E+00 -0.72048017E-01
    5    2    0.57725871E-09  0.25880384E-01
    6    2    0.75171916E-01  0.25880386E-01
    7    2   -0.16952776E-08 -0.52500783E-01
    8    2    0.52683823E-01 -0.52500782E-01
    9    2   -0.26391062E-10 -0.77398166E-01
   10    2    0.14497873E+00 -0.77398161E-01
    1    3   -0.10516356E+00 -0.86906497E-02
    2    3    0.48423097E-09  0.86906495E-02
    3    3    0.39396185E-01 -0.15587586E-01
    4    3   -0.14957450E-08  0.15587586E-01
    5    3    0.60506551E-01 -0.15470280E-01
    6    3   -0.43591049E-09  0.15470280E-01
    7    3   -0.10654338E-01 -0.73985414E-03
    8    3   -0.34471843E-09  0.73985470E-03
    9    3    0.11611987E+00 -0.39983827E-02
   10    3    0.28748054E-09  0.39983818E-02
    1    4    0.72900741E-09  0.86906505E-02
    2    4   -0.10516356E+00  0.86906509E-02
    3    4    0.21748826E-08  0.15587585E-01
    4    4    0.39396185E-01  0.15587585E-01
    5    4    0.97435216E-09  0.15470280E-01
    6    4    0.60506552E-01  0.15470282E-01
    7    4    0.14354023E-08  0.73985373E-03
    8    4   -0.10654338E-01  0.73985186E-03
    9    4    0.13667925E-08  0.39983805E-02
   10    4    0.11611987E+00  0.39983803E-02
    1    5    0.10890625E+00 -0.23337641E-01
    2    5    0.11314035E-08  0.23337641E-01
    3    5    0.51706283E-01 -0.45746225E-01
    4    5    0.17646767E-08  0.45746226E-01
    5    5    0.45324118E-01  0.11932921E-01
    6    5   -0.38259087E-09 -0.11932921E-01
    7    5   -0.26783824E+00  0.35504380E-02
    8    5    0.42214423E-09 -0.35504389E-02
    9    5   -0.99596656E-01  0.21778170E-01
   10    5    0.62327649E-09 -0.21778171E-01
    1    6   -0.71569378E-09  0.23337640E-01
    2    6    0.10890625E+00  0.23337640E-01
    3    6    0.48932040E-10  0.45746225E-01
    4    6    0.51706282E-01  0.45746224E-01
    5    6    0.65269806E-10 -0.11932922E-01
    6    6    0.45324119E-01 -0.11932921E-01
    7    6   -0.73290757E-09 -0.35504381E-02
    8    6   -0.26783824E+00 -0.35504384E-02
    9    6   -0.19889625E-08 -0.21778171E-01
   10    6   -0.99596655E-01 -0.21778170E-01
    1    7   -0.17978981E+00 -0.95122309E-01
    2    7   -0.61855910E-10  0.95122309E-01
    3    7    0.32608016E-01 -0.87955543E-02
    4    7    0.94162815E-09  0.87955533E-02
    5    7   -0.41990988E-01 -0.22572552E-02
    6    7   -0.44011393E-09  0.22572550E-02
    7    7   -0.25325276E-01 -0.18574362E-01
    8    7    0.17319747E-08  0.18574360E-01
    9    7    0.26205679E-01  0.13029435E-02
   10    7    0.18433787E-09 -0.13029457E-02
    1    8   -0.37402789E-09  0.95122309E-01
    2    8   -0.17978980E+00  0.95122309E-01
    3    8    0.12039244E-09  0.87955533E-02
    4    8    0.32608012E-01  0.87955540E-02
    5    8    0.62041808E-09  0.22572556E-02
    6    8   -0.41990989E-01  0.22572554E-02
    7    8   -0.74716378E-09  0.18574361E-01
    8    8   -0.25325276E-01  0.18574361E-01
    9    8   -0.17617462E-08 -0.13029446E-02
   10    8    0.26205681E-01 -0.13029475E-02
    1    9    0.64609011E-01  0.11897269E-01
    2    9    0.21633400E-09 -0.11897265E-01
    3    9   -0.10824698E+00  0.65004586E-01
    4    9    0.25209761E-08 -0.65004581E-01
    5    9   -0.16784893E+00 -0.29707690E-02
    6    9   -0.93055260E-09  0.29707689E-02
    7    9    0.11297213E-01  0.14671315E+00
    8    9    0.40560376E-09 -0.14671315E+00
    9    9   -0.17655944E+00  0.32023535E-01
   10    9   -0.35500184E-09 -0.32023533E-01
    1   10   -0.99804574E-09 -0.11897263E-01
    2   10    0.64609015E-01 -0.11897268E-01
    3   10   -0.31040336E-08 -0.65004584E-01
    4   10   -0.10824698E+00 -0.65004588E-01
    5   10    0.17617034E-08  0.29707694E-02
    6   10   -0.16784893E+00  0.29707707E-02
    7   10    0.34995493E-09 -0.14671315E+00
    8   10    0.11297212E-01 -0.14671315E+00
    9   10   -0.29709527E-08 -0.32023532E-01
   10   10   -0.17655944E+00 -0.32023536E-01

   -1    1    0
    1    1   -0.11413857E+00 -0.23308211E-01
    2    1   -0.23242546E-01  0.20633304E-01
    3    1   -0.24413153E-01 -0.44797276E-01
    4    1    0.57222249E-01  0.13702764E-01
    5    1   -0.11239886E-01  0.15449298E-01
    6    1   -0.52064510E-02 -0.34737942E-02
    7    1   -0.11093649E+00  0.66059963E-02
    8    1    0.22401216E-01 -0.84172256E-01
    9    1    0.44924827E-01  0.61516803E-01
   10    1    0.84427138E-01  0.51606132E-02
    1    2    0.23242548E-01  0.20633303E-01
    2    2   -0.11413857E+00  0.23308211E-01
    3    2   -0.57222254E-01  0.13702763E-01
    4    2   -0.24413151E-01  0.44797280E-01
    5    2    0.52064536E-02 -0.34737941E-02
    6    2   -0.11239886E-01 -0.15449298E-01
    7    2   -0.22401217E-01 -0.84172256E-01
    8    2   -0.11093649E+00 -0.66059956E-02
    9    2   -0.84427140E-01  0.51606180E-02
   10    2    0.44924827E-01 -0.61516805E-01
    1    3   -0.97941183E-01  0.63368084E-01
    2    3    0.45519439E-01 -0.37913730E-02
    3    3    0.11649113E+00 -0.19106590E-01
    4    3   -0.36927581E-01 -0.31350611E-01
    5    3    0.85134573E-02  0.31012596E-01
    6    3    0.86436941E-02 -0.66541321E-02
    7    3    0.39664890E-02  0.97242406E-01
    8    3    0.54054635E-02  0.33149515E-01
    9    3    0.20353848E-01  0.26168452E-01
   10    3    0.47734239E-02  0.32102429E-01
    1    4   -0.45519436E-01 -0.37913725E-02
    2    4   -0.97941183E-01 -0.63368080E-01
    3    4    0.36927581E-01 -0.31350615E-01
    4    4    0.11649113E+00  0.19106590E-01
    5    4   -0.86436931E-02 -0.66541307E-02
    6    4    0.85134578E-02 -0.31012596E-01
    7    4   -0.54054633E-02  0.33149515E-01
    8    4    0.39664902E-02 -0.97242404E-01
    9    4   -0.47734222E-02  0.32102426E-01
   10    4    0.20353848E-01 -0.26168450E-01
    1    5    0.41706919E-01 -0.47961998E-01
    2    5   -0.21824185E-01  0.55632526E-01
    3    5   -0.58939565E-01  0.59976963E-01
    4    5    0.10229357E-01  0.42140373E-02
    5    5    0.64487927E-01 -0.33332238E-01
    6    5   -0.19974496E-02  0.10911103E-01
    7    5   -0.34176724E-01 -0.55186325E-02
    8    5    0.15940910E-01  0.26981717E-02
    9    5   -0.23920986E-01 -0.29009456E-01
   10    5   -0.17813759E-01 -0.67561409E-02
    1    6    0.21824184E-01  0.55632527E-01
    2    6    0.41706919E-01  0.47961998E-01
    3    6   -0.10229356E-01  0.42140369E-02
    4    6   -0.58939563E-01 -0.59976964E-01
    5    6    0.19974497E-02  0.10911102E-01
    6    6    0.64487927E-01  0.33332238E-01
    7    6   -0.15940911E-01  0.26981725E-02
    8    6   -0.34176725E-01  0.55186310E-02
    9    6    0.17813757E-01 -0.67561399E-02
   10    6   -0.23920987E-01  0.29009454E-01
    1    7   -0.87124196E-01 -0.17245489E-02
    2    7    0.36884500E-01 -0.83478476E-02
    3    7   -0.10058004E-01 -0.18022238E-01
    4    7   -0.10639906E+00 -0.13678508E-01
    5    7   -0.51887392E-01  0.27215207E-01
    6    7    0.38812111E-01 -0.15026598E-01
    7    7   -0.19705171E+00 -0.54299421E-02
    8    7    0.20796108E-01 -0.36281424E-01
    9    7    0.72248178E-02 -0.11275695E+00
   10    7    0.26787734E-01  0.27625930E-01
    1    8   -0.36884502E-01 -0.83478480E-02
    2    8   -0.87124198E-01  0.17245493E-02
    3    8    0.10639906E+00 -0.13678508E-01
    4    8   -0.10058005E-01  0.18022240E-01
    5    8   -0.38812110E-01 -0.15026598E-01
    6    8   -0.51887391E-01 -0.27215207E-01
    7    8   -0.20796107E-01 -0.36281424E-01
    8    8   -0.19705171E+00  0.54299419E-02
    9    8   -0.26787732E-01  0.27625929E-01
   10    8    0.72248155E-02  0.11275695E+00
    1    9   -0.20019584E+00 -0.15149580E-01
    2    9    0.79598291E-01  0.76932861E-02
    3    9   -0.16733162E+00  0.39214052E-01
    4    9   -0.62215525E-01  0.19108300E-02
    5    9    0.49251987E-01  0.28421363E-01
    6    9   -0.19215718E-01  0.77809668E-02
    7    9   -0.35116854E-01 -0.24839281E-01
    8    9    0.18520667E-01 -0.16186902E-01
    9    9   -0.10995386E-01  0.24514020E-01
   10    9    0.10169461E+00 -0.86808632E-02
    1   10   -0.79598289E-01  0.76932857E-02
    2   10   -0.20019584E+00  0.15149573E-01
    3   10    0.62215525E-01  0.19108306E-02
    4   10   -0.16733163E+00 -0.39214050E-01
    5   10    0.19215718E-01  0.77809654E-02
    6   10    0.49251987E-01 -0.28421365E-01
    7   10   -0.18520668E-01 -0.16186901E-01
    8   10   -0.35116852E-01  0.24839284E-01
    9   10   -0.10169462E+00 -0.86808613E-02
   10   10   -0.10995388E-01 -0.24514020E-01

   -1    1    1
    1    1   -0.63222372E-02 -0.27763374E-01
    2    1    0.38772338E-02 -0.66937960E-01
    3    1   -0.12271861E+00  0.59240393E-01
    4    1    0.76891366E-02  0.72684720E-01
    5    1   -0.40911348E-01 -0.48653038E-01
    6    1   -0.15694338E-01 -0.33579205E-01
    7    1    0.15705306E+00 -0.13215317E-01
    8    1   -0.12616049E-01  0.53408126E-01
    9    1    0.33533974E-01  0.26406919E-01
   10    1    0.55072283E-01  0.21297198E-01
    1    2   -0.38772327E-02 -0.66937962E-01
    2    2   -0.63222366E-02  0.27763373E-01
    3    2   -0.76891343E-02  0.72684719E-01
    4    2   -0.12271862E+00 -0.59240396E-01
    5    2    0.15694339E-01 -0.33579207E-01
    6    2   -0.40911346E-01  0.48653040E-01
    7    2    0.12616052E-01  0.53408125E-01
    8    2    0.15705306E+00  0.13215319E-01
    9    2   -0.55072280E-01  0.21297197E-01
   10    2    0.33533972E-01 -0.26406917E-01
    1    3    0.10191995E-01  0.17879335E-01
    2    3    0.63008539E-01  0.32399150E-02
    3    3   -0.31142592E-01  0.88786748E-02
    4    3    0.53847030E-01  0.25770502E-01
    5    3    0.27971154E-01  0.73963504E-02
    6    3    0.15476693E-01 -0.30412837E-01
    7    3    0.57085741E-01 -0.15273206E-01
    8    3   -0.45120285E-01  0.71503455E-02
    9    3   -0.10080972E+00  0.59610240E-01
   10    3    0.97071011E-02 -0.29733712E-01
    1    4   -0.63008540E-01  0.32399137E-02
    2    4    0.10191996E-01 -0.17879338E-01
    3    4   -0.53847029E-01  0.25770502E-01
    4    4   -0.31142593E-01 -0.88786765E-02
    5    4   -0.15476695E-01 -0.30412837E-01
    6    4    0.27971156E-01 -0.73963511E-02
    7    4    0.45120284E-01  0.71503464E-02
    8    4    0.57085741E-01  0.15273205E-01
    9    4   -0.97071018E-02 -0.29733714E-01
   10    4   -0.10080972E+00 -0.59610237E-01
    1    5    0.62549626E-01 -0.11914607E-01
    2    5    0.82075263E-02 -0.56318835E-01
    3    5    0.59719033E-01  0.46179286E-01
    4    5   -0.23942665E-01  0.14231450E+00
    5    5    0.22601419E-01 -0.26734669E-01
    6    5    0.34076008E-02 -0.24162624E-01
    7    5   -0.36586024E-01 -0.71249352E-02
    8    5    0.48706759E-01  0.18333199E-01
    9    5   -0.33039530E-01  0.77202876E-01
   10    5    0.14350621E-01 -0.10800320E-01
    1    6   -0.82075283E-02 -0.56318834E-01
    2    6    0.62549627E-01  0.11914608E-01
    3    6    0.23942668E-01  0.14231450E+00
    4    6    0.59719032E-01 -0.46179287E-01
    5    6   -0.34076001E-02 -0.24162623E-01
    6    6    0.22601420E-01  0.26734670E-01
    7    6   -0.48706759E-01  0.18333199E-01
    8    6   -0.36586024E-01  0.71249357E-02
    9    6   -0.14350621E-01 -0.10800321E-01
   10    6   -0.33039530E-01 -0.77202875E-01
    1    7   -0.12236279E+00 -0.94905804E-01
    2    7    0.32220123E-01 -0.83494683E-01
    3    7    0.37492744E-01  0.19421783E-02
    4    7   -0.30534936E-01 -0.96484538E-02
    5    7    0.21929779E+00  0.26506001E-01
    6    7    0.87417059E-02  0.23763685E-02
    7    7   -0.57912636E-01  0.90664352E-02
    8    7    0.13859052E-01 -0.24405588E-01
    9    7    0.18305252E-01  0.56449817E-01
   10    7    0.56268158E-01 -0.86364169E-01
    1    8   -0.32220120E-01 -0.83494685E-01
    2    8   -0.12236278E+00  0.94905807E-01
    3    8    0.30534936E-01 -0.96484529E-02
    4    8    0.37492741E-01 -0.19421782E-02
    5    8   -0.87417057E-02  0.23763688E-02
    6    8    0.21929779E+00 -0.26506002E-01
    7    8   -0.13859050E-01 -0.24405588E-01
    8    8   -0.57912637E-01 -0.90664354E-02
    9    8   -0.56268156E-01 -0.86364169E-01
   10    8    0.18305252E-01 -0.56449814E-01
    1    9   -0.73727093E-01 -0.91220908E-02
    2    9    0.82269406E-01 -0.24508350E-02
    3    9    0.54979038E-01 -0.31861356E-01
    4    9   -0.30222019E-01  0.50643350E-01
    5    9   -0.84033522E-01 -0.46465438E-02
    6    9    0.18891734E-02  0.73589884E-02
    7    9    0.35878897E-01  0.90544154E-03
    8    9   -0.27507224E-01  0.11111041E+00
    9    9    0.50315484E-01 -0.31290648E-02
   10    9    0.15446250E-01  0.22089149E-01
    1   10   -0.82269404E-01 -0.24508356E-02
    2   10   -0.73727094E-01  0.91220954E-02
    3   10    0.30222021E-01  0.50643352E-01
    4   10    0.54979037E-01  0.31861358E-01
    5   10   -0.18891744E-02  0.73589885E-02
    6   10   -0.84033522E-01  0.46465440E-02
    7   10    0.27507225E-01  0.11111041E+00
    8   10    0.35878898E-01 -0.90544356E-03
    9   10   -0.15446248E-01  0.22089147E-01
   10   10    0.50315480E-01  0.31290669E-02

   -1    2   -1
    1    1   -0.11618495E-01 -0.41726132E-01
    2    1   -0.62589893E-09  0.41726132E-01
    3    1    0.81370749E-01 -0.12827906E-01
    4    1    0.13984754E-08  0.12827907E-01
    5    1    0.11234714E+00 -0.11199943E-02
    6    1   -0.11511003E-08  0.11199939E-02
    7    1    0.14858698E+00 -0.15771028E-01
    8    1    0.33128141E-09  0.15771027E-01
    9    1    0.87417931E-01  0.82044495E-02
   10    1   -0.26346584E-08 -0.82044520E-02
    1    2   -0.99967948E-09  0.41726132E-01
    2    2   -0.11618495E-01  0.41726132E-01
    3    2    0.11792954E-09  0.12827907E-01
    4    2    0.81370748E-01  0.12827904E-01
    5    2    0.15101172E-08  0.11199931E-02
    6    2    0.11234714E+00  0.11199956E-02
    7    2    0.14109355E-08  0.15771028E-01
    8    2    0.14858698E+00  0.15771026E-01
    9    2   -0.12479211E-08 -0.82044529E-02
   10    2    0.87417931E-01 -0.82044518E-02
    1    3    0.15033537E+00 -0.77644277E-02
    2    3   -0.46979034E-09  0.77644270E-02
    3    3   -0.71383732E-01 -0.11777576E-01
    4    3    0.12512542E-08  0.11777574E-01
    5    3   -0.89693870E-03 -0.10075248E-02
    6    3   -0.25285116E-09  0.10075250E-02
    7    3   -0.25369146E-01 -0.28181480E-01
    8    3    0.11140690E-08  0.28181479E-01
    9    3    0.19610084E+00 -0.26695309E-01
   10    3    0.18688490E-09  0.26695308E-01
    1    4    0.85138057E-09  0.77644266E-02
    2    4    0.15033537E+00  0.77644303E-02
    3    4    0.13887963E-08  0.11777577E-01
    4    4   -0.71383731E-01  0.11777576E-01
    5    4    0.81942071E-09  0.10075238E-02
    6    4   -0.89693818E-03  0.10075261E-02
    7    4   -0.40308601E-09  0.28181479E-01
    8    4   -0.25369147E-01  0.28181480E-01
    9    4    0.62082344E-09  0.26695310E-01
   10    4    0.19610084E+00  0.26695312E-01
    1    5    0.57756121E-02 -0.54535512E-01
    2    5    0.14245586E-08  0.54535513E-01
    3    5   -0.61941085E-01  0.26478734E-02
    4    5    0.65671677E-09 -0.26478724E-02
    5    5   -0.21464651E-01 -0.43752162E-02
    6    5    0.16845212E-09  0.43752165E-02
    7    5    0.15137270E+00 -0.14445054E-01
    8    5   -0.40905134E-09  0.14445054E-01
    9    5   -0.71222867E-01 -0.38648512E-02
   10    5   -0.16357787E-08  0.38648500E-02
    1    6   -0.10619496E-08  0.54535512E-01
    2    6    0.57756138E-02  0.54535511E-01
    3    6   -0.95870239E-10 -0.26478738E-02
    4    6   -0.61941085E-01 -0.26478745E-02
    5    6   -0.13241955E-09  0.43752157E-02
    6    6   -0.21464651E-01  0.43752162E-02
    7    6   -0.65947818E-09  0.14445054E-01
    8    6    0.15137270E+00  0.14445055E-01
    9    6   -0.12577099E-08  0.38648501E-02
   10    6   -0.71222866E-01  0.38648519E-02
    1    7    0.20786632E+00 -0.14344438E-01
    2    7    0.15246423E-08  0.14344438E-01
    3    7    0.78038218E-01 -0.88130315E-02
    4    7   -0.25626113E-09  0.88130329E-02
    5    7    0.52608737E-01 -0.36740869E-01
    6    7   -0.64221729E-09  0.36740869E-01
    7    7    0.37914033E-01  0.69936300E-02
    8    7   -0.95102465E-09 -0.69936291E-02
    9    7   -0.24936618E-02  0.54060180E-01
   10    7   -0.21388611E-08 -0.54060181E-01
    1    8    0.18377852E-09  0.14344438E-01
    2    8    0.20786632E+00  0.14344439E-01
    3    8    0.13054427E-08  0.88130316E-02
    4    8    0.78038217E-01  0.88130311E-02
    5    8   -0.63658228E-09  0.36740869E-01
    6    8    0.52608736E-01  0.36740869E-01
    7    8   -0.11076505E-08 -0.69936310E-02
    8    8    0.37914031E-01 -0.69936301E-02
    9    8    0.18360738E-08 -0.54060181E-01
   10    8   -0.24936599E-02 -0.54060178E-01
    1    9    0.18800983E+00  0.17921690E-01
    2    9   -0.16730948E-08 -0.17921686E-01
    3    9   -0.49795920E-01  0.67065742E-02
    4    9    0.75964616E-09 -0.67065744E-02
    5    9   -0.78470221E-01 -0.34339476E-01
    6    9   -0.14295169E-08  0.34339477E-01
    7    9   -0.17755573E+00  0.39629972E-01
    8    9    0.17315620E-08 -0.39629972E-01
    9    9    0.48637237E-01  0.38990833E-01
   10    9   -0.82303840E-09 -0.38990833E-01
    1   10   -0.29505683E-08 -0.17921687E-01
    2   10    0.18800983E+00 -0.17921687E-01
    3   10    0.34814698E-09 -0.67065724E-02
    4   10   -0.49795919E-01 -0.67065756E-02
    5   10   -0.14347352E-08  0.34339477E-01
    6   10   -0.78470221E-01  0.34339475E-01
    7   10   -0.19853872E-08 -0.39629972E-01
    8   10   -0.17755573E+00 -0.39629975E-01
    9   10   -0.72838736E-09 -0.38990834E-01
   10   10    0.48637238E-01 -0.38990833E-01

   -1    2    0
    1    1   -0.56705728E-01 -0.63158859E-01
    2    1    0.16312435E-01  0.11449185E-01
    3    1    0.10528649E+00 -0.78355658E-01
    4    1    0.39687768E-01 -0.48212881E-01
    5    1   -0.49945352E-01  0.51947041E-01
    6    1    0.24978943E-01 -0.11383802E-01
    7    1    0.74988878E-01 -0.97524665E-02
    8    1    0.32826035E-02  0.48895988E-02
    9    1    0.25002012E-01  0.23075384E-01
   10    1   -0.23793406E-01  0.22196242E-01
    1    2   -0.16312437E-01  0.11449186E-01
    2    2   -0.56705727E-01  0.63158864E-01
    3    2   -0.39687771E-01 -0.48212882E-01
    4    2    0.10528649E+00  0.78355659E-01
    5    2   -0.24978941E-01 -0.11383802E-01
    6    2   -0.49945352E-01 -0.51947042E-01
    7    2   -0.32826067E-02  0.48895994E-02
    8    2    0.74988875E-01  0.97524649E-02
    9    2    0.23793405E-01  0.22196242E-01
   10    2    0.25002010E-01 -0.23075385E-01
    1    3   -0.12173325E+00  0.24436614E-01
    2    3   -0.66783414E-01 -0.39640133E-01
    3    3    0.11278531E-01  0.20130806E-01
    4    3    0.76382462E-01  0.24632557E-01
    5    3   -0.39840354E-01  0.44955464E-01
    6    3   -0.11643768E-01 -0.88712378E-02
    7    3   -0.41362133E-01  0.55287682E-02
    8    3    0.28786893E-01 -0.24014462E-01
    9    3    0.33068286E-01 -0.14615467E-01
   10    3    0.52523656E-01 -0.94030062E-02
    1    4    0.66783417E-01 -0.39640132E-01
    2    4   -0.12173325E+00 -0.24436613E-01
    3    4   -0.76382462E-01  0.24632555E-01
    4    4    0.11278531E-01 -0.20130805E-01
    5    4    0.11643768E-01 -0.88712379E-02
    6    4   -0.39840352E-01 -0.44955463E-01
    7    4   -0.28786892E-01 -0.24014464E-01
    8    4   -0.41362130E-01 -0.55287683E-02
    9    4   -0.52523655E-01 -0.94030036E-02
   10    4    0.33068287E-01  0.14615464E-01
    1    5    0.55477270E-01 -0.76492962E-01
    2    5   -0.23639323E-01 -0.14092798E-01
    3    5   -0.24063766E-01  0.10855315E-01
    4    5   -0.64788709E-02  0.58710082E-01
    5    5   -0.61301484E-05 -0.16759392E-01
    6    5    0.17290364E-04  0.11540232E-01
    7    5    0.18786492E+00 -0.45195878E-01
    8    5   -0.12794292E-02 -0.89848368E-02
    9    5    0.57536347E-01 -0.43533835E-01
   10    5    0.32332452E-01  0.13524248E-02
    1    6    0.23639322E-01 -0.14092800E-01
    2    6    0.55477271E-01  0.76492960E-01
    3    6    0.64788714E-02  0.58710083E-01
    4    6   -0.24063765E-01 -0.10855315E-01
    5    6   -0.17290645E-04  0.11540231E-01
    6    6   -0.61303439E-05  0.16759391E-01
    7    6    0.12794290E-02 -0.89848372E-02
    8    6    0.18786492E+00  0.45195877E-01
    9    6   -0.32332451E-01  0.13524240E-02
   10    6    0.57536346E-01  0.43533833E-01
    1    7    0.64155178E-01 -0.13374487E-01
    2    7   -0.34747497E-01  0.91814476E-01
    3    7    0.63574764E-02  0.13339066E-01
    4    7    0.12744680E-01  0.25245143E-01
    5    7    0.46930957E-01  0.12097011E-01
    6    7   -0.25388146E-02 -0.12214499E-01
    7    7    0.27858639E-01  0.21776343E-01
    8    7    0.38202406E-02 -0.47823725E-01
    9    7    0.66265831E-01 -0.64166888E-01
   10    7   -0.29996428E-01  0.52629292E-01
    1    8    0.34747497E-01  0.91814476E-01
    2    8    0.64155179E-01  0.13374483E-01
    3    8   -0.12744681E-01  0.25245143E-01
    4    8    0.63574788E-02 -0.13339066E-01
    5    8    0.25388151E-02 -0.12214500E-01
    6    8    0.46930956E-01 -0.12097009E-01
    7    8   -0.38202421E-02 -0.47823725E-01
    8    8    0.27858639E-01 -0.21776344E-01
    9    8    0.29996428E-01  0.52629290E-01
   10    8    0.66265833E-01  0.64166885E-01
    1    9    0.57827828E-01 -0.85265672E-02
    2    9   -0.15473111E-01  0.50756202E-01
    3    9    0.37978223E-01 -0.33871306E-02
    4    9    0.16207378E-01 -0.16930935E-01
    5    9    0.20239907E-01  0.88409787E-01
    6    9    0.50818358E-02 -0.11659861E-01
    7    9   -0.16315272E-01 -0.78316696E-03
    8    9    0.36142037E-01 -0.18737684E-01
    9    9    0.66024764E-01  0.35158860E-01
   10    9   -0.81993643E-01 -0.20593748E-01
    1   10    0.15473107E-01  0.50756203E-01
    2   10    0.57827829E-01  0.85265639E-02
    3   10   -0.16207378E-01 -0.16930934E-01
    4   10    0.37978224E-01  0.33871260E-02
    5   10   -0.50818346E-02 -0.11659859E-01
    6   10    0.20239907E-01 -0.88409787E-01
    7   10   -0.36142036E-01 -0.18737683E-01
    8   10   -0.16315275E-01  0.78316389E-03
    9   10    0.81993641E-01 -0.20593746E-01
   10   10    0.66024767E-01 -0.35158864E-01

    0   -2    1
    1    1   -0.56705728E-01  0.11449187E-01
    2    1    0.16312437E-01 -0.63158861E-01
    3    1   -0.12173325E+00 -0.39640133E-01
    4    1   -0.66783420E-01  0.24436616E-01
    5    1    0.55477271E-01 -0.14092797E-01
    6    1   -0.23639322E-01 -0.76492962E-01
    7    1    0.64155178E-01  0.91814477E-01
    8    1   -0.34747497E-01 -0.13374485E-01
    9    1    0.57827832E-01  0.50756203E-01
   10    1   -0.15473107E-01 -0.85265642E-02
    1    2   -0.16312436E-01 -0.63158863E-01
    2    2   -0.56705727E-01 -0.11449186E-01
    3    2    0.66783418E-01  0.24436614E-01
    4    2   -0.12173325E+00  0.39640136E-01
    5    2    0.23639321E-01 -0.76492960E-01
    6    2    0.55477272E-01  0.14092796E-01
    7    2    0.34747500E-01 -0.13374486E-01
    8    2    0.64155180E-01 -0.91814479E-01
    9    2    0.15473109E-01 -0.85265652E-02
   10    2    0.57827831E-01 -0.50756208E-01
    1    3    0.10528649E+00 -0.48212881E-01
    2    3    0.39687772E-01 -0.78355657E-01
    3    3    0.11278527E-01  0.24632557E-01
    4    3    0.76382464E-01  0.20130805E-01
    5    3   -0.24063764E-01  0.58710082E-01
    6    3   -0.64788687E-02  0.10855316E-01
    7    3    0.63574793E-02  0.25245142E-01
    8    3    0.12744681E-01  0.13339065E-01
    9    3    0.37978224E-01 -0.16930935E-01
   10    3    0.16207378E-01 -0.33871284E-02
    1    4   -0.39687769E-01 -0.78355658E-01
    2    4    0.10528649E+00  0.48212884E-01
    3    4   -0.76382463E-01  0.20130805E-01
    4    4    0.11278526E-01 -0.24632556E-01
    5    4    0.64788710E-02  0.10855316E-01
    6    4   -0.24063765E-01 -0.58710082E-01
    7    4   -0.12744682E-01  0.13339066E-01
    8    4    0.63574762E-02 -0.25245143E-01
    9    4   -0.16207376E-01 -0.33871267E-02
   10    4    0.37978224E-01  0.16930934E-01
    1    5   -0.49945352E-01 -0.11383803E-01
    2    5    0.24978941E-01  0.51947043E-01
    3    5   -0.39840353E-01 -0.88712377E-02
    4    5   -0.11643769E-01  0.44955462E-01
    5    5   -0.61307356E-05  0.11540232E-01
    6    5    0.17290707E-04 -0.16759392E-01
    7    5    0.46930958E-01 -0.12214499E-01
    8    5   -0.25388151E-02  0.12097011E-01
    9    5    0.20239906E-01 -0.11659861E-01
   10    5    0.50818336E-02  0.88409786E-01
    1    6   -0.24978940E-01  0.51947041E-01
    2    6   -0.49945349E-01  0.11383801E-01
    3    6    0.11643767E-01  0.44955462E-01
    4    6   -0.39840352E-01  0.88712383E-02
    5    6   -0.17290032E-04 -0.16759392E-01
    6    6   -0.61296141E-05 -0.11540233E-01
    7    6    0.25388150E-02  0.12097011E-01
    8    6    0.46930958E-01  0.12214499E-01
    9    6   -0.50818350E-02  0.88409786E-01
   10    6    0.20239906E-01  0.11659861E-01
    1    7    0.74988878E-01  0.48895979E-02
    2    7    0.32826066E-02 -0.97524655E-02
    3    7   -0.41362133E-01 -0.24014463E-01
    4    7    0.28786892E-01  0.55287684E-02
    5    7    0.18786492E+00 -0.89848371E-02
    6    7   -0.12794281E-02 -0.45195878E-01
    7    7    0.27858642E-01 -0.47823724E-01
    8    7    0.38202413E-02  0.21776344E-01
    9    7   -0.16315274E-01 -0.18737683E-01
   10    7    0.36142036E-01 -0.78316367E-03
    1    8   -0.32826030E-02 -0.97524663E-02
    2    8    0.74988879E-01 -0.48895994E-02
    3    8   -0.28786892E-01  0.55287693E-02
    4    8   -0.41362133E-01  0.24014463E-01
    5    8    0.12794283E-02 -0.45195878E-01
    6    8    0.18786492E+00  0.89848365E-02
    7    8   -0.38202396E-02  0.21776343E-01
    8    8    0.27858641E-01  0.47823724E-01
    9    8   -0.36142035E-01 -0.78316597E-03
   10    8   -0.16315273E-01  0.18737685E-01
    1    9    0.25002008E-01  0.22196240E-01
    2    9   -0.23793403E-01  0.23075379E-01
    3    9    0.33068284E-01 -0.94030080E-02
    4    9    0.52523651E-01 -0.14615467E-01
    5    9    0.57536345E-01  0.13524258E-02
    6    9    0.32332453E-01 -0.43533835E-01
    7    9    0.66265832E-01  0.52629292E-01
    8    9   -0.29996427E-01 -0.64166887E-01
    9    9    0.66024769E-01 -0.20593749E-01
   10    9   -0.81993643E-01  0.35158860E-01
    1   10    0.23793406E-01  0.23075378E-01
    2   10    0.25002006E-01 -0.22196242E-01
    3   10   -0.52523653E-01 -0.14615469E-01
    4   10    0.33068285E-01  0.94030056E-02
    5   10   -0.32332453E-01 -0.43533836E-01
    6   10    0.57536345E-01 -0.13524264E-02
    7   10    0.29996428E-01 -0.64166887E-01
    8   10    0.66265832E-01 -0.52629294E-01
    9   10    0.81993645E-01  0.35158859E-01
   10   10    0.66024765E-01  0.20593747E-01

    0   -1    0
    1    1    0.19097961E+00  0.47117961E-02
    2    1    0.19908552E-09 -0.47117951E-02
    3    1   -0.14366325E+00  0.54594571E-02
    4    1    0.30776122E-08 -0.54594570E-02
    5    1   -0.43000549E-01 -0.13322409E-01
    6    1   -0.10527212E-08  0.13322407E-01
    7    1    0.19880940E+00 -0.11600919E+00
    8    1    0.48760553E-09  0.11600919E+00
    9    1    0.14068154E+00 -0.56400873E-01
   10    1   -0.18494849E-08  0.56400870E-01
    1    2    0.29043774E-09 -0.47117942E-02
    2    2    0.19097961E+00 -0.47117926E-02
    3    2   -0.25695743E-08 -0.54594557E-02
    4    2   -0.14366325E+00 -0.54594583E-02
    5    2    0.61882023E-09  0.13322407E-01
    6    2   -0.43000549E-01  0.13322408E-01
    7    2   -0.19854470E-08  0.11600919E+00
    8    2    0.19880940E+00  0.11600919E+00
    9    2   -0.14051211E-09  0.56400869E-01
   10    2    0.14068154E+00  0.56400875E-01
    1    3    0.10343585E+00 -0.96390018E-01
    2    3    0.80431529E-09  0.96390018E-01
    3    3   -0.17150944E+00 -0.67829576E-02
    4    3   -0.17213802E-08  0.67829582E-02
    5    3    0.70318462E-01  0.69944434E-02
    6    3   -0.41814308E-09 -0.69944442E-02
    7    3    0.45540049E-01 -0.20135063E-01
    8    3   -0.87896913E-09  0.20135064E-01
    9    3    0.14521884E-02 -0.76863013E-02
   10    3    0.68510942E-09  0.76863003E-02
    1    4    0.61282416E-09  0.96390019E-01
    2    4    0.10343585E+00  0.96390019E-01
    3    4    0.15853931E-08  0.67829567E-02
    4    4   -0.17150944E+00  0.67829559E-02
    5    4    0.12715189E-08 -0.69944431E-02
    6    4    0.70318463E-01 -0.69944421E-02
    7    4    0.16909000E-08  0.20135063E-01
    8    4    0.45540049E-01  0.20135061E-01
    9    4    0.15324207E-08  0.76862987E-02
   10    4    0.14521906E-02  0.76862988E-02
    1    5    0.21234313E+00  0.12067558E+00
    2    5    0.11471310E-08 -0.12067558E+00
    3    5   -0.28883408E-01 -0.32818816E-02
    4    5    0.12217783E-08  0.32818822E-02
    5    5    0.43621157E-01 -0.16969283E-01
    6    5   -0.37440368E-09  0.16969283E-01
    7    5   -0.60979681E-01 -0.26239624E-01
    8    5    0.40473512E-09  0.26239624E-01
    9    5   -0.44039747E-01  0.32563562E-01
   10    5    0.49772241E-09 -0.32563563E-01
    1    6   -0.53102418E-09 -0.12067558E+00
    2    6    0.21234313E+00 -0.12067558E+00
    3    6   -0.10353019E-09  0.32818817E-02
    4    6   -0.28883409E-01  0.32818809E-02
    5    6   -0.76180195E-10  0.16969283E-01
    6    6    0.43621158E-01  0.16969283E-01
    7    6   -0.80759155E-09  0.26239624E-01
    8    6   -0.60979681E-01  0.26239624E-01
    9    6   -0.20189276E-08 -0.32563563E-01
   10    6   -0.44039746E-01 -0.32563562E-01
    1    7   -0.43609925E-01  0.10392683E-01
    2    7   -0.22586266E-09 -0.10392683E-01
    3    7   -0.31121850E+00  0.17889940E-02
    4    7    0.76232426E-09 -0.17889953E-02
    5    7    0.23200160E+00  0.29139614E-01
    6    7   -0.48302396E-09 -0.29139614E-01
    7    7   -0.22289021E-01  0.23778428E-01
    8    7    0.16461982E-08 -0.23778430E-01
    9    7   -0.36354680E-01  0.55071530E-01
   10    7    0.34405605E-09 -0.55071533E-01
    1    8   -0.32861381E-09 -0.10392683E-01
    2    8   -0.43609922E-01 -0.10392683E-01
    3    8    0.14406511E-09 -0.17889951E-02
    4    8   -0.31121850E+00 -0.17889941E-02
    5    8    0.54743782E-09 -0.29139613E-01
    6    8    0.23200160E+00 -0.29139614E-01
    7    8   -0.97255614E-09 -0.23778429E-01
    8    8   -0.22289021E-01 -0.23778428E-01
    9    8   -0.17616814E-08 -0.55071531E-01
   10    8   -0.36354678E-01 -0.55071534E-01
    1    9   -0.10742207E+00  0.34791625E-01
    2    9    0.15571196E-09 -0.34791620E-01
    3    9    0.17445997E+00  0.20043239E-01
    4    9    0.25820125E-08 -0.20043234E-01
    5    9    0.50425323E-01  0.33818563E-02
    6    9   -0.10107808E-08 -0.33818564E-02
    7    9   -0.47687372E-01 -0.35245718E-01
    8    9    0.42287511E-09  0.35245716E-01
    9    9   -0.35185988E-01  0.23226546E-01
   10    9    0.72065438E-10 -0.23226545E-01
    1   10   -0.93155861E-09 -0.34791618E-01
    2   10   -0.10742207E+00 -0.34791624E-01
    3   10   -0.32022863E-08 -0.20043236E-01
    4   10    0.17445997E+00 -0.20043241E-01
    5   10    0.16562077E-08 -0.33818561E-02
    6   10    0.50425323E-01 -0.33818550E-02
    7   10    0.27713120E-09  0.35245717E-01
    8   10   -0.47687373E-01  0.35245716E-01
    9   10   -0.24861057E-08 -0.23226544E-01
   10   10   -0.35185988E-01 -0.23226548E-01

    0   -1    1
    1    1   -0.11413857E+00  0.20633302E-01
    2    1   -0.23242546E-01 -0.23308208E-01
    3    1   -0.97941184E-01 -0.37913703E-02
    4    1    0.45519435E-01  0.63368080E-01
    5    1    0.41706920E-01  0.55632527E-01
    6    1   -0.21824182E-01 -0.47961996E-01
    7    1   -0.87124194E-01 -0.83478479E-02
    8    1    0.36884501E-01 -0.17245487E-02
    9    1   -0.20019584E+00  0.76932861E-02
   10    1    0.79598289E-01 -0.15149577E-01
    1    2    0.23242548E-01 -0.23308209E-01
    2    2   -0.11413857E+00 -0.20633301E-01
    3    2   -0.45519439E-01  0.63368079E-01
    4    2   -0.97941181E-01  0.37913741E-02
    5    2    0.21824185E-01 -0.47961996E-01
    6    2    0.41706921E-01 -0.55632527E-01
    7    2   -0.36884502E-01 -0.17245487E-02
    8    2   -0.87124195E-01  0.83478485E-02
    9    2   -0.79598291E-01 -0.15149573E-01
   10    2   -0.20019584E+00 -0.76932886E-02
    1    3   -0.24413152E-01  0.13702767E-01
    2    3    0.57222253E-01 -0.44797279E-01
    3    3    0.11649113E+00 -0.31350614E-01
    4    3   -0.36927580E-01 -0.19106588E-01
    5    3   -0.58939565E-01  0.42140380E-02
    6    3    0.10229358E-01  0.59976963E-01
    7    3   -0.10058006E-01 -0.13678506E-01
    8    3   -0.10639906E+00 -0.18022238E-01
    9    3   -0.16733162E+00  0.19108315E-02
   10    3   -0.62215524E-01  0.39214053E-01
    1    4   -0.57222250E-01 -0.44797278E-01
    2    4   -0.24413152E-01 -0.13702763E-01
    3    4    0.36927580E-01 -0.19106591E-01
    4    4    0.11649113E+00  0.31350614E-01
    5    4   -0.10229357E-01  0.59976964E-01
    6    4   -0.58939565E-01 -0.42140381E-02
    7    4    0.10639906E+00 -0.18022238E-01
    8    4   -0.10058005E-01  0.13678509E-01
    9    4    0.62215526E-01  0.39214050E-01
   10    4   -0.16733162E+00 -0.19108298E-02
    1    5   -0.11239887E-01 -0.34737956E-02
    2    5   -0.52064536E-02  0.15449297E-01
    3    5    0.85134577E-02 -0.66541322E-02
    4    5    0.86436933E-02  0.31012596E-01
    5    5    0.64487926E-01  0.10911102E-01
    6    5   -0.19974495E-02 -0.33332238E-01
    7    5   -0.51887391E-01 -0.15026598E-01
    8    5    0.38812111E-01  0.27215207E-01
    9    5    0.49251988E-01  0.77809662E-02
   10    5   -0.19215719E-01  0.28421364E-01
    1    6    0.52064524E-02  0.15449298E-01
    2    6   -0.11239887E-01  0.34737956E-02
    3    6   -0.86436925E-02  0.31012595E-01
    4    6    0.85134589E-02  0.66541305E-02
    5    6    0.19974499E-02 -0.33332238E-01
    6    6    0.64487927E-01 -0.10911102E-01
    7    6   -0.38812111E-01  0.27215207E-01
    8    6   -0.51887392E-01  0.15026597E-01
    9    6    0.19215718E-01  0.28421364E-01
   10    6    0.49251987E-01 -0.77809690E-02
    1    7   -0.11093649E+00 -0.84172256E-01
    2    7    0.22401215E-01  0.66059963E-02
    3    7    0.39664913E-02  0.33149515E-01
    4    7    0.54054647E-02  0.97242405E-01
    5    7   -0.34176726E-01  0.26981715E-02
    6    7    0.15940911E-01 -0.55186325E-02
    7    7   -0.19705171E+00 -0.36281425E-01
    8    7    0.20796108E-01 -0.54299416E-02
    9    7   -0.35116854E-01 -0.16186901E-01
   10    7    0.18520671E-01 -0.24839280E-01
    1    8   -0.22401217E-01  0.66059961E-02
    2    8   -0.11093649E+00  0.84172256E-01
    3    8   -0.54054633E-02  0.97242405E-01
    4    8    0.39664904E-02 -0.33149512E-01
    5    8   -0.15940909E-01 -0.55186321E-02
    6    8   -0.34176724E-01 -0.26981722E-02
    7    8   -0.20796108E-01 -0.54299413E-02
    8    8   -0.19705171E+00  0.36281424E-01
    9    8   -0.18520669E-01 -0.24839282E-01
   10    8   -0.35116856E-01  0.16186902E-01
    1    9    0.44924827E-01  0.51606120E-02
    2    9    0.84427140E-01  0.61516802E-01
    3    9    0.20353848E-01  0.32102428E-01
    4    9    0.47734229E-02  0.26168450E-01
    5    9   -0.23920986E-01 -0.67561409E-02
    6    9   -0.17813758E-01 -0.29009455E-01
    7    9    0.72248177E-02  0.27625929E-01
    8    9    0.26787730E-01 -0.11275695E+00
    9    9   -0.10995386E-01 -0.86808617E-02
   10    9    0.10169461E+00  0.24514019E-01
    1   10   -0.84427138E-01  0.61516802E-01
    2   10    0.44924828E-01 -0.51606176E-02
    3   10   -0.47734229E-02  0.26168451E-01
    4   10    0.20353847E-01 -0.32102426E-01
    5   10    0.17813758E-01 -0.29009457E-01
    6   10   -0.23920986E-01  0.67561392E-02
    7   10   -0.26787730E-01 -0.11275695E+00
    8   10    0.72248196E-02 -0.27625926E-01
    9   10   -0.10169462E+00  0.24514020E-01
   10   10   -0.10995388E-01  0.86808614E-02

    0   -1    2
    1    1   -0.56705738E-01 -0.11449186E-01
    2    1   -0.16312436E-01  0.63158864E-01
    3    1    0.10528649E+00  0.48212881E-01
    4    1   -0.39687766E-01  0.78355660E-01
    5    1   -0.49945350E-01  0.11383805E-01
    6    1   -0.24978941E-01 -0.51947045E-01
    7    1    0.74988874E-01 -0.48895971E-02
    8    1   -0.32825986E-02  0.97524614E-02
    9    1    0.25001991E-01 -0.22196237E-01
   10    1    0.23793412E-01 -0.23075375E-01
    1    2    0.16312437E-01  0.63158862E-01
    2    2   -0.56705737E-01  0.11449185E-01
    3    2    0.39687769E-01  0.78355659E-01
    4    2    0.10528649E+00 -0.48212883E-01
    5    2    0.24978943E-01 -0.51947046E-01
    6    2   -0.49945348E-01 -0.11383802E-01
    7    2    0.32826021E-02  0.97524607E-02
    8    2    0.74988874E-01  0.48895986E-02
    9    2   -0.23793409E-01 -0.23075376E-01
   10    2    0.25001989E-01  0.22196240E-01
    1    3   -0.12173325E+00  0.39640136E-01
    2    3    0.66783422E-01 -0.24436620E-01
    3    3    0.11278534E-01 -0.24632559E-01
    4    3   -0.76382469E-01 -0.20130807E-01
    5    3   -0.39840358E-01  0.88712390E-02
    6    3    0.11643768E-01 -0.44955461E-01
    7    3   -0.41362134E-01  0.24014463E-01
    8    3   -0.28786897E-01 -0.55287665E-02
    9    3    0.33068276E-01  0.94030088E-02
   10    3   -0.52523655E-01  0.14615470E-01
    1    4   -0.66783424E-01 -0.24436622E-01
    2    4   -0.12173325E+00 -0.39640139E-01
    3    4    0.76382470E-01 -0.20130807E-01
    4    4    0.11278533E-01  0.24632558E-01
    5    4   -0.11643770E-01 -0.44955461E-01
    6    4   -0.39840356E-01 -0.88712397E-02
    7    4    0.28786896E-01 -0.55287656E-02
    8    4   -0.41362135E-01 -0.24014463E-01
    9    4    0.52523654E-01  0.14615468E-01
   10    4    0.33068276E-01 -0.94030064E-02
    1    5    0.55477266E-01  0.14092794E-01
    2    5    0.23639320E-01  0.76492967E-01
    3    5   -0.24063764E-01 -0.58710081E-01
    4    5    0.64788721E-02 -0.10855310E-01
    5    5   -0.61326240E-05 -0.11540231E-01
    6    5   -0.17289706E-04  0.16759389E-01
    7    5    0.18786491E+00  0.89848391E-02
    8    5    0.12794296E-02  0.45195877E-01
    9    5    0.57536343E-01 -0.13524276E-02
   10    5   -0.32332456E-01  0.43533835E-01
    1    6   -0.23639321E-01  0.76492968E-01
    2    6    0.55477266E-01 -0.14092793E-01
    3    6   -0.64788698E-02 -0.10855310E-01
    4    6   -0.24063765E-01  0.58710080E-01
    5    6    0.17290380E-04  0.16759390E-01
    6    6   -0.61315025E-05  0.11540231E-01
    7    6   -0.12794294E-02  0.45195876E-01
    8    6    0.18786491E+00 -0.89848386E-02
    9    6    0.32332456E-01  0.43533834E-01
   10    6    0.57536344E-01  0.13524282E-02
    1    7    0.64155175E-01 -0.91814480E-01
    2    7    0.34747502E-01  0.13374488E-01
    3    7    0.63574883E-02 -0.25245140E-01
    4    7   -0.12744684E-01 -0.13339062E-01
    5    7    0.46930949E-01  0.12214498E-01
    6    7    0.25388171E-02 -0.12097010E-01
    7    7    0.27858644E-01  0.47823720E-01
    8    7   -0.38202383E-02 -0.21776344E-01
    9    7    0.66265831E-01 -0.52629294E-01
   10    7    0.29996428E-01  0.64166887E-01
    1    8   -0.34747500E-01  0.13374486E-01
    2    8    0.64155178E-01  0.91814483E-01
    3    8    0.12744684E-01 -0.13339060E-01
    4    8    0.63574851E-02  0.25245141E-01
    5    8   -0.25388171E-02 -0.12097010E-01
    6    8    0.46930949E-01 -0.12214498E-01
    7    8    0.38202399E-02 -0.21776344E-01
    8    8    0.27858644E-01 -0.47823721E-01
    9    8   -0.29996427E-01  0.64166887E-01
   10    8    0.66265831E-01  0.52629296E-01
    1    9    0.57827841E-01 -0.50756206E-01
    2    9    0.15473116E-01  0.85265696E-02
    3    9    0.37978231E-01  0.16930935E-01
    4    9   -0.16207377E-01  0.33871277E-02
    5    9    0.20239902E-01  0.11659862E-01
    6    9   -0.50818356E-02 -0.88409786E-01
    7    9   -0.16315275E-01  0.18737682E-01
    8    9   -0.36142033E-01  0.78315869E-03
    9    9    0.66024773E-01  0.20593748E-01
   10    9    0.81993654E-01 -0.35158857E-01
    1   10   -0.15473114E-01  0.85265686E-02
    2   10    0.57827839E-01  0.50756210E-01
    3   10    0.16207379E-01  0.33871294E-02
    4   10    0.37978231E-01 -0.16930933E-01
    5   10    0.50818342E-02 -0.88409786E-01
    6   10    0.20239902E-01 -0.11659861E-01
    7   10    0.36142034E-01  0.78315639E-03
    8   10   -0.16315274E-01 -0.18737684E-01
    9   10   -0.81993652E-01 -0.35158858E-01
   10   10    0.66024768E-01 -0.20593745E-01

    0    0   -1
    1    1   -0.91957801E-01 -0.68726871E-03
    2    1    0.33497326E-01  0.68250217E-01
    3    1   -0.60979272E-01 -0.15643547E-01
    4    1   -0.18181926E-01  0.29980722E-01
    5    1   -0.53988922E-01 -0.25638904E-01
    6    1   -0.13779737E-01 -0.52794526E-01
    7    1    0.52376993E-01 -0.97873600E-03
    8    1    0.62689265E-01 -0.21633133E-01
    9    1   -0.78802100E-01 -0.29296033E-02
   10    1   -0.40819744E-02  0.93711971E-01
    1    2   -0.33497329E-01  0.68250218E-01
    2    2   -0.91957800E-01  0.68726388E-03
    3    2    0.18181928E-01  0.29980722E-01
    4    2   -0.60979272E-01  0.15643546E-01
    5    2    0.13779736E-01 -0.52794528E-01
    6    2   -0.53988921E-01  0.25638906E-01
    7    2   -0.62689265E-01 -0.21633133E-01
    8    2    0.52376994E-01  0.97873922E-03
    9    2    0.40819715E-02  0.93711972E-01
   10    2   -0.78802099E-01  0.29296065E-02
    1    3    0.64636373E-02 -0.79888132E-02
    2    3    0.75367674E-02 -0.83664924E-01
    3    3    0.15248702E-01 -0.44885560E-02
    4    3   -0.80072732E-01  0.32064687E-02
    5    3    0.56320745E-02  0.46310860E-01
    6    3   -0.16775546E-02 -0.65442268E-01
    7    3    0.70106614E-02 -0.36367442E-01
    8    3   -0.19852814E-01  0.18628306E-01
    9    3   -0.40633943E-01 -0.18992603E-01
   10    3   -0.13032429E-01 -0.30258383E-01
    1    4   -0.75367710E-02 -0.83664926E-01
    2    4    0.64636381E-02  0.79888124E-02
    3    4    0.80072732E-01  0.32064674E-02
    4    4    0.15248702E-01  0.44885558E-02
    5    4    0.16775550E-02 -0.65442267E-01
    6    4    0.56320750E-02 -0.46310860E-01
    7    4    0.19852812E-01  0.18628305E-01
    8    4    0.70106638E-02  0.36367443E-01
    9    4    0.13032430E-01 -0.30258382E-01
   10    4   -0.40633942E-01  0.18992608E-01
    1    5    0.10572287E+00 -0.11124628E-02
    2    5    0.48328808E-02  0.88005739E-01
    3    5   -0.89198764E-01  0.39886371E-01
    4    5    0.10306548E-01  0.74181895E-01
    5    5   -0.84346170E-02 -0.64051809E-02
    6    5    0.12991447E-01  0.19030754E-01
    7    5   -0.14670534E+00  0.41639609E-01
    8    5   -0.20438306E-01 -0.33213444E-01
    9    5   -0.15483247E+00 -0.19213422E-01
   10    5   -0.57153494E-01 -0.34817107E-01
    1    6   -0.48328796E-02  0.88005739E-01
    2    6    0.10572287E+00  0.11124633E-02
    3    6   -0.10306548E-01  0.74181895E-01
    4    6   -0.89198763E-01 -0.39886373E-01
    5    6   -0.12991448E-01  0.19030753E-01
    6    6   -0.84346172E-02  0.64051822E-02
    7    6    0.20438307E-01 -0.33213445E-01
    8    6   -0.14670534E+00 -0.41639610E-01
    9    6    0.57153495E-01 -0.34817105E-01
   10    6   -0.15483247E+00  0.19213422E-01
[...]
    8    2   -0.51872670E-02  0.31062559E-01 -0.74528070E-02  0.45288987E-01 -0.11556642E-01  0.50652403E-01
    9    2   -0.90872581E-02  0.11491852E-02 -0.12305709E-01  0.18297301E-01 -0.22627593E-01 -0.15987685E-01
   10    2   -0.10629135E+00 -0.14995885E-02 -0.14318778E+00  0.11327654E-01 -0.12992204E+00  0.73017221E-02
    1    3    0.49578955E-01  0.50668821E-01  0.11564448E-01  0.29169464E-01  0.83152956E-02  0.43572421E-01
    2    3   -0.39692752E-02 -0.52988244E-01 -0.66147363E-01 -0.42364178E-01 -0.36324655E-01 -0.26291542E-01
    3    3    0.35080250E+00 -0.33585018E+00 -0.25711292E+00 -0.60192288E+00  0.65612069E-01  0.83223626E-01
    4    3   -0.52787228E-01 -0.54438955E-02 -0.87581529E-01 -0.18553581E-01 -0.65341696E-01  0.17272994E-01
    5    3    0.23465261E-01  0.82193841E-02  0.35218611E-01 -0.11577558E-01  0.26952099E-01  0.65624062E-03
    6    3   -0.13142604E-01  0.35675510E-02 -0.10585896E-01  0.39696785E-02 -0.23824489E-01  0.17601183E-01
    7    3   -0.76062906E-01 -0.49736725E-01 -0.63215978E-01 -0.10191052E+00 -0.55569029E-01 -0.68446862E-01
    8    3   -0.86849154E-02 -0.74810036E-01 -0.15793158E-01 -0.81354247E-01 -0.10906840E-01 -0.68454029E-01
    9    3    0.70684426E-01 -0.46440460E-01  0.12415974E+00 -0.19843596E-01  0.91941817E-01 -0.69028045E-01
   10    3   -0.20196864E-01 -0.38276236E-01 -0.12565080E-01 -0.23111563E-01 -0.11340227E-01 -0.31438053E-01
    1    4    0.39692755E-02 -0.52988243E-01  0.66147363E-01 -0.42364175E-01  0.36324655E-01 -0.26291541E-01
    2    4    0.49578958E-01 -0.50668822E-01  0.11564452E-01 -0.29169465E-01  0.83152972E-02 -0.43572422E-01
    3    4    0.52787225E-01 -0.54438945E-02  0.87581526E-01 -0.18553581E-01  0.65341691E-01  0.17272993E-01
    4    4    0.35080250E+00  0.33585017E+00 -0.25711292E+00  0.60192287E+00  0.65612069E-01 -0.83223626E-01
    5    4    0.13142605E-01  0.35675530E-02  0.10585897E-01  0.39696807E-02  0.23824489E-01  0.17601185E-01
    6    4    0.23465261E-01 -0.82193824E-02  0.35218611E-01  0.11577560E-01  0.26952099E-01 -0.65623970E-03
    7    4    0.86849154E-02 -0.74810035E-01  0.15793159E-01 -0.81354248E-01  0.10906841E-01 -0.68454030E-01
    8    4   -0.76062905E-01  0.49736723E-01 -0.63215977E-01  0.10191052E+00 -0.55569029E-01  0.68446860E-01
    9    4    0.20196862E-01 -0.38276235E-01  0.12565079E-01 -0.23111563E-01  0.11340225E-01 -0.31438051E-01
   10    4    0.70684427E-01  0.46440460E-01  0.12415974E+00  0.19843597E-01  0.91941816E-01  0.69028044E-01
    1    5    0.37515051E-01 -0.46496911E-01  0.58399375E-01 -0.18567010E-01  0.64029381E-01 -0.36471774E-01
    2    5   -0.87304259E-02  0.98707770E-02 -0.16882461E-01  0.15820614E-01 -0.73709160E-02  0.11826328E-01
    3    5   -0.78768502E-01  0.78138342E-01 -0.74290898E-01  0.66149542E-01 -0.84013180E-01  0.54082992E-01
    4    5    0.53005975E-01  0.39142323E-01  0.58202483E-01  0.67118855E-01  0.50663426E-01 -0.79466996E-02
    5    5   -0.19979575E-01 -0.12580012E+00  0.94862235E-01  0.54564780E-01 -0.59425126E-01  0.73539317E-02
    6    5   -0.83214321E-02 -0.28555168E-02 -0.16105076E-01  0.31395550E-02 -0.16274118E-01 -0.24734982E-01
    7    5    0.10731911E+00  0.11333120E-01  0.17055673E+00  0.85529302E-01  0.92930458E-01  0.41613312E-01
    8    5   -0.10223333E-01  0.10393555E-01 -0.18508910E-01  0.11238233E-01 -0.52597944E-02  0.24342136E-01
    9    5   -0.41375991E-01  0.64130281E-01 -0.64912083E-01  0.60178678E-01 -0.97807484E-02  0.64334032E-01
   10    5   -0.95688128E-02 -0.33121749E-01 -0.12098003E-01 -0.31400283E-01 -0.18696685E-02 -0.61711461E-01
    1    6    0.87304264E-02  0.98707771E-02  0.16882463E-01  0.15820613E-01  0.73709175E-02  0.11826327E-01
    2    6    0.37515050E-01  0.46496909E-01  0.58399374E-01  0.18567009E-01  0.64029379E-01  0.36471774E-01
    3    6   -0.53005977E-01  0.39142322E-01 -0.58202484E-01  0.67118856E-01 -0.50663427E-01 -0.79466986E-02
    4    6   -0.78768502E-01 -0.78138342E-01 -0.74290897E-01 -0.66149543E-01 -0.84013180E-01 -0.54082992E-01
    5    6    0.83214316E-02 -0.28555165E-02  0.16105076E-01  0.31395547E-02  0.16274118E-01 -0.24734983E-01
    6    6   -0.19979574E-01  0.12580011E+00  0.94862235E-01 -0.54564779E-01 -0.59425126E-01 -0.73539328E-02
    7    6    0.10223335E-01  0.10393554E-01  0.18508912E-01  0.11238232E-01  0.52597960E-02  0.24342135E-01
    8    6    0.10731911E+00 -0.11333121E-01  0.17055673E+00 -0.85529303E-01  0.92930460E-01 -0.41613313E-01
    9    6    0.95688136E-02 -0.33121749E-01  0.12098004E-01 -0.31400282E-01  0.18696688E-02 -0.61711460E-01
   10    6   -0.41375992E-01 -0.64130282E-01 -0.64912083E-01 -0.60178680E-01 -0.97807483E-02 -0.64334033E-01
    1    7   -0.71478882E-01  0.90849959E-02  0.31330009E-01 -0.14602764E-01 -0.51525092E-02  0.49892514E-01
    2    7    0.11910809E-01 -0.14721658E-01 -0.24595376E-01  0.31206741E-02  0.30178869E-01 -0.15571217E-01
    3    7   -0.13886435E-01  0.18955352E-01 -0.18085921E-01 -0.78329134E-02 -0.23794142E-01  0.14646387E-01
    4    7   -0.24740036E-01  0.90407407E-02 -0.20049711E-01  0.13115816E-01 -0.15845657E-01  0.19555471E-01
    5    7   -0.63165565E-02 -0.63998976E-02 -0.16480214E-01  0.47314732E-02 -0.12804714E-02  0.13252842E-01
    6    7    0.92263847E-02  0.46215112E-01  0.10880034E-01  0.45357587E-01  0.32250924E-01  0.46529096E-01
    7    7   -0.11217588E+00  0.30929104E-01 -0.15038834E+00  0.14390475E+00 -0.65818883E-01 -0.59393668E-01
    8    7   -0.25165496E-01  0.24648105E-01 -0.18081053E-01  0.36480141E-01 -0.23641826E-01  0.20723665E-01
    9    7    0.67536922E-01 -0.30774791E-01  0.33962619E-01 -0.38185584E-01  0.97586372E-01 -0.36980495E-01
   10    7   -0.51350923E-02  0.71919969E-01 -0.28955026E-01  0.11110302E+00 -0.27528142E-01  0.46655815E-01
    1    8   -0.11910811E-01 -0.14721657E-01  0.24595375E-01  0.31206748E-02 -0.30178871E-01 -0.15571215E-01
    2    8   -0.71478883E-01 -0.90849952E-02  0.31330009E-01  0.14602763E-01 -0.51525100E-02 -0.49892513E-01
    3    8    0.24740035E-01  0.90407413E-02  0.20049711E-01  0.13115818E-01  0.15845656E-01  0.19555473E-01
    4    8   -0.13886434E-01 -0.18955351E-01 -0.18085921E-01  0.78329149E-02 -0.23794142E-01 -0.14646385E-01
    5    8   -0.92263864E-02  0.46215111E-01 -0.10880036E-01  0.45357586E-01 -0.32250926E-01  0.46529096E-01
    6    8   -0.63165565E-02  0.63998988E-02 -0.16480214E-01 -0.47314719E-02 -0.12804703E-02 -0.13252841E-01
    7    8    0.25165496E-01  0.24648104E-01  0.18081055E-01  0.36480140E-01  0.23641827E-01  0.20723664E-01
    8    8   -0.11217588E+00 -0.30929105E-01 -0.15038834E+00 -0.14390476E+00 -0.65818884E-01  0.59393667E-01
    9    8    0.51350932E-02  0.71919971E-01  0.28955028E-01  0.11110303E+00  0.27528143E-01  0.46655816E-01
   10    8    0.67536923E-01  0.30774793E-01  0.33962620E-01  0.38185586E-01  0.97586373E-01  0.36980497E-01
    1    9    0.17864007E+00 -0.11309277E-01  0.14177884E+00 -0.32232296E-01  0.58108208E-02  0.30895663E-01
    2    9   -0.42832483E-01  0.13135053E-01 -0.19320992E-01 -0.45913925E-01 -0.23979823E-01 -0.54438380E-01
    3    9    0.76676897E-01  0.13761763E-01  0.27053601E-01  0.10636978E-02 -0.50103299E-02  0.21915911E-01
    4    9   -0.61793387E-01  0.12403197E-01 -0.17935884E-01  0.96395299E-02 -0.64007498E-01 -0.18378873E-01
    5    9   -0.35965717E-01 -0.25751873E-01 -0.81036745E-01 -0.51067458E-01 -0.74191789E-01 -0.16468896E-01
    6    9    0.46839964E-03  0.12371144E-02  0.76839918E-02  0.31131820E-01  0.14844911E-01  0.38802035E-01
    7    9    0.51816684E-01  0.84915996E-01  0.91807951E-01  0.67982857E-01  0.85537842E-01  0.61930744E-01
    8    9   -0.57582752E-01  0.35755070E-01 -0.43409440E-01  0.51845483E-01 -0.40397464E-01  0.44993837E-01
    9    9   -0.57093905E+00 -0.32974833E+00  0.92298682E-01 -0.22272458E+00 -0.43764769E+00  0.16754569E+00
   10    9   -0.14487926E-01 -0.43386008E-01 -0.26324899E-01 -0.23533308E-01 -0.32390323E-01 -0.25814416E-01
    1   10    0.42832484E-01  0.13135053E-01  0.19320996E-01 -0.45913925E-01  0.23979826E-01 -0.54438380E-01
    2   10    0.17864007E+00  0.11309275E-01  0.14177884E+00  0.32232294E-01  0.58108226E-02 -0.30895666E-01
    3   10    0.61793387E-01  0.12403197E-01  0.17935885E-01  0.96395313E-02  0.64007499E-01 -0.18378872E-01
    4   10    0.76676895E-01 -0.13761764E-01  0.27053599E-01 -0.10636987E-02 -0.50103314E-02 -0.21915911E-01
    5   10   -0.46839892E-03  0.12371146E-02 -0.76839919E-02  0.31131820E-01 -0.14844911E-01  0.38802035E-01
    6   10   -0.35965715E-01  0.25751874E-01 -0.81036744E-01  0.51067458E-01 -0.74191787E-01  0.16468896E-01
    7   10    0.57582752E-01  0.35755069E-01  0.43409441E-01  0.51845481E-01  0.40397464E-01  0.44993836E-01
    8   10    0.51816685E-01 -0.84915995E-01  0.91807952E-01 -0.67982856E-01  0.85537844E-01 -0.61930742E-01
    9   10    0.14487922E-01 -0.43386009E-01  0.26324894E-01 -0.23533309E-01  0.32390319E-01 -0.25814419E-01
   10   10   -0.57093905E+00  0.32974833E+00  0.92298688E-01  0.22272457E+00 -0.43764768E+00 -0.16754570E+00

    2    0   -1
    1    1    0.13498117E+00  0.54286079E-01  0.15764723E+00 -0.14008370E+00  0.13360216E+00  0.31699453E-01
    2    1   -0.70594815E-02 -0.37317607E-01 -0.50801495E-08 -0.69853260E-01  0.70594740E-02 -0.57733113E-01
    3    1    0.12461322E+00 -0.51275823E-02  0.11806490E+00  0.28334865E-01  0.12461322E+00 -0.87440261E-03
    4    1    0.95554202E-02  0.87440007E-03 -0.48191482E-09 -0.28334867E-01 -0.95554204E-02  0.51275787E-02
    5    1   -0.15686086E+00  0.17858050E-01 -0.14232162E+00 -0.95396149E-03 -0.15686087E+00  0.23736770E-01
    6    1    0.19481446E-02 -0.23736770E-01 -0.92743376E-09  0.95396186E-03 -0.19481458E-02 -0.17858051E-01
    7    1    0.82775859E-01  0.56234901E-01  0.96101828E-01  0.22885786E-01  0.82775862E-01  0.16954623E-01
    8    1    0.79685685E-02 -0.16954627E-01 -0.16766751E-08 -0.22885790E-01 -0.79685709E-02 -0.56234903E-01
    9    1   -0.42149308E-01  0.16029205E-01 -0.15773104E-01 -0.27223105E-02 -0.42149305E-01 -0.66979372E-02
   10    1   -0.52970721E-03  0.66979430E-02  0.16743451E-08  0.27223160E-02  0.52970981E-03 -0.16029201E-01
    1    2    0.70594806E-02 -0.37317607E-01  0.43537749E-08 -0.69853262E-01 -0.70594759E-02 -0.57733114E-01
    2    2    0.13498117E+00 -0.54286078E-01  0.15764723E+00  0.14008371E+00  0.13360215E+00 -0.31699451E-01
    3    2   -0.95554215E-02  0.87440396E-03 -0.17939545E-09 -0.28334864E-01  0.95554195E-02  0.51275829E-02
    4    2    0.12461322E+00  0.51275826E-02  0.11806490E+00 -0.28334865E-01  0.12461322E+00  0.87440164E-03
    5    2   -0.19481449E-02 -0.23736771E-01  0.13688287E-08  0.95396055E-03  0.19481456E-02 -0.17858052E-01
    6    2   -0.15686086E+00 -0.17858052E-01 -0.14232162E+00  0.95395934E-03 -0.15686087E+00 -0.23736773E-01
    7    2   -0.79685682E-02 -0.16954628E-01  0.13337402E-08 -0.22885789E-01  0.79685710E-02 -0.56234904E-01
    8    2    0.82775859E-01 -0.56234900E-01  0.96101828E-01 -0.22885787E-01  0.82775864E-01 -0.16954623E-01
    9    2    0.52971197E-03  0.66979479E-02  0.34586285E-08  0.27223208E-02 -0.52970496E-03 -0.16029195E-01
   10    2   -0.42149309E-01 -0.16029205E-01 -0.15773105E-01  0.27223107E-02 -0.42149306E-01  0.66979380E-02
    1    3   -0.14853601E-01  0.44408761E-01 -0.10649595E-01  0.58829957E-01 -0.14853600E-01  0.62369155E-01
    2    3   -0.22263112E-01 -0.62369153E-01 -0.28840327E-08 -0.58829954E-01  0.22263112E-01 -0.44408756E-01
    3    3    0.11779975E+00 -0.87257103E-01 -0.46141364E+00 -0.61203353E+00  0.54745595E-01  0.53771998E+00
    4    3    0.25967121E-01  0.21641242E-01 -0.33541643E-08  0.49910474E-01 -0.25967127E-01  0.31114713E-01
    5    3   -0.33270061E-01 -0.24883908E-02 -0.46412385E-01 -0.98254407E-02 -0.33270060E-01  0.90118943E-02
    6    3   -0.21265475E-01 -0.90118941E-02 -0.36692650E-09  0.98254390E-02  0.21265475E-01  0.24883926E-02
    7    3   -0.10430628E+00  0.42269866E-01 -0.84732693E-01  0.22050533E-01 -0.10430628E+00  0.10161729E+00
    8    3   -0.98307091E-02 -0.10161728E+00 -0.15011377E-08 -0.22050526E-01  0.98307104E-02 -0.42269857E-01
    9    3   -0.20347126E-01 -0.37199546E-01 -0.22345918E-01 -0.63645233E-01 -0.20347123E-01 -0.18299773E-01
   10    3    0.17647455E-01  0.18299771E-01 -0.36211657E-08  0.63645230E-01 -0.17647463E-01  0.37199544E-01
    1    4    0.22263111E-01 -0.62369157E-01 -0.29719356E-09 -0.58829958E-01 -0.22263115E-01 -0.44408761E-01
    2    4   -0.14853600E-01 -0.44408761E-01 -0.10649595E-01 -0.58829959E-01 -0.14853600E-01 -0.62369157E-01
    3    4   -0.25967122E-01  0.21641243E-01 -0.29529214E-09  0.49910477E-01  0.25967127E-01  0.31114715E-01
    4    4    0.11779974E+00  0.87257095E-01 -0.46141364E+00  0.61203353E+00  0.54745591E-01 -0.53771999E+00
    5    4    0.21265474E-01 -0.90118968E-02 -0.34101824E-09  0.98254355E-02 -0.21265476E-01  0.24883890E-02
    6    4   -0.33270061E-01  0.24883922E-02 -0.46412387E-01  0.98254413E-02 -0.33270061E-01 -0.90118935E-02
    7    4    0.98307116E-02 -0.10161729E+00  0.33234779E-08 -0.22050527E-01 -0.98307081E-02 -0.42269859E-01
    8    4   -0.10430628E+00 -0.42269867E-01 -0.84732689E-01 -0.22050533E-01 -0.10430628E+00 -0.10161729E+00
    9    4   -0.17647454E-01  0.18299770E-01  0.29319704E-08  0.63645230E-01  0.17647464E-01  0.37199544E-01
   10    4   -0.20347125E-01  0.37199544E-01 -0.22345918E-01  0.63645232E-01 -0.20347121E-01  0.18299773E-01
    1    5   -0.10901013E+00  0.16280686E-01 -0.18220734E+00 -0.15806649E-01 -0.10901013E+00  0.63810946E-02
    2    5   -0.34848733E-03 -0.63810983E-02 -0.70852927E-09  0.15806645E-01  0.34848628E-03 -0.16280690E-01
    3    5   -0.31461023E-01 -0.26356676E-01 -0.71002802E-02  0.18788039E-01 -0.31461023E-01  0.74557496E-03
    4    5    0.40631306E-02 -0.74557823E-03 -0.88211797E-09 -0.18788043E-01 -0.40631320E-02  0.26356674E-01
    5    5    0.70310000E-01 -0.87807202E-02 -0.22080125E+00 -0.86254428E-01  0.11668107E+00 -0.58151673E-03
    6    5   -0.24176954E-02  0.11598044E-02  0.16594668E-08  0.19271434E-02  0.24176987E-02  0.49635412E-02
    7    5    0.21914932E-01 -0.91486599E-02  0.86864480E-02 -0.80724958E-02  0.21914933E-01 -0.79845581E-02
    8    5   -0.28327360E-02  0.79845576E-02  0.21022775E-08  0.80724978E-02  0.28327389E-02  0.91486587E-02
    9    5   -0.65191921E-02 -0.86445132E-03 -0.41820471E-01 -0.16785704E-01 -0.65191900E-02  0.11604141E-01
   10    5    0.55289346E-03 -0.11604136E-01  0.11016921E-08  0.16785710E-01 -0.55289116E-03  0.86445624E-03
    1    6    0.34848765E-03 -0.63810974E-02  0.63054279E-10  0.15806645E-01 -0.34848780E-03 -0.16280689E-01
    2    6   -0.10901014E+00 -0.16280686E-01 -0.18220734E+00  0.15806649E-01 -0.10901013E+00 -0.63810953E-02
    3    6   -0.40631317E-02 -0.74557810E-03  0.18916585E-09 -0.18788043E-01  0.40631313E-02  0.26356674E-01
    4    6   -0.31461025E-01  0.26356677E-01 -0.71002831E-02 -0.18788040E-01 -0.31461026E-01 -0.74557527E-03
    5    6    0.24176964E-02  0.11598055E-02 -0.99262339E-09  0.19271444E-02 -0.24176980E-02  0.49635424E-02
    6    6    0.70310002E-01  0.87807206E-02 -0.22080125E+00  0.86254427E-01  0.11668107E+00  0.58151673E-03
    7    6    0.28327367E-02  0.79845578E-02 -0.11562328E-08  0.80724981E-02 -0.28327381E-02  0.91486592E-02
    8    6    0.21914931E-01  0.91486592E-02  0.86864476E-02  0.80724954E-02  0.21914933E-01  0.79845578E-02
    9    6   -0.55289370E-03 -0.11604136E-01 -0.13737006E-08  0.16785710E-01  0.55289163E-03  0.86445595E-03
   10    6   -0.65191925E-02  0.86445178E-03 -0.41820472E-01  0.16785704E-01 -0.65191915E-02 -0.11604140E-01
    1    7    0.54499674E-01 -0.86501266E-01  0.25863668E-01 -0.63451846E-01  0.54499675E-01 -0.43726386E-01
    2    7    0.89585224E-02  0.43726381E-01 -0.19587495E-08  0.63451843E-01 -0.89585247E-02  0.86501263E-01
    3    7   -0.29284498E-01  0.53671543E-01 -0.22964164E-01  0.47486237E-01 -0.29284502E-01  0.34472386E-01
    4    7    0.24785252E-01 -0.34472380E-01  0.19909098E-09 -0.47486230E-01 -0.24785250E-01 -0.53671540E-01
    5    7   -0.10486532E+00 -0.14153266E-01 -0.48800405E-01 -0.14003394E-01 -0.10486533E+00 -0.22467158E-02
    6    7   -0.10886541E-02  0.22467155E-02  0.11031826E-08  0.14003394E-01  0.10886569E-02  0.14153266E-01
    7    7    0.13737250E+00 -0.63454162E-01  0.57375229E-01  0.32534383E-01  0.11371722E+00 -0.37539566E-02
    8    7   -0.19922512E-01  0.47740224E-02 -0.14446730E-08  0.82572373E-03  0.19922506E-01  0.12966324E-03
    9    7    0.15002899E-02 -0.26237503E-01  0.39072130E-01 -0.36256212E-01  0.15002893E-02 -0.60248605E-01
   10    7   -0.76591084E-02  0.60248612E-01 -0.97443536E-09  0.36256218E-01  0.76591066E-02  0.26237508E-01
    1    8   -0.89585221E-02  0.43726383E-01  0.20137922E-08  0.63451845E-01  0.89585247E-02  0.86501265E-01
    2    8    0.54499672E-01  0.86501268E-01  0.25863667E-01  0.63451847E-01  0.54499673E-01  0.43726386E-01
    3    8   -0.24785251E-01 -0.34472381E-01  0.90897642E-09 -0.47486233E-01  0.24785250E-01 -0.53671542E-01
    4    8   -0.29284497E-01 -0.53671543E-01 -0.22964163E-01 -0.47486237E-01 -0.29284501E-01 -0.34472386E-01
    5    8    0.10886553E-02  0.22467158E-02 -0.95096008E-10  0.14003394E-01 -0.10886559E-02  0.14153267E-01
    6    8   -0.10486532E+00  0.14153267E-01 -0.48800404E-01  0.14003395E-01 -0.10486533E+00  0.22467167E-02
    7    8    0.19922513E-01  0.47740234E-02  0.20898072E-08  0.82572560E-03 -0.19922504E-01  0.12966454E-03
    8    8    0.13737250E+00  0.63454164E-01  0.57375227E-01 -0.32534387E-01  0.11371722E+00  0.37539580E-02
    9    8    0.76591095E-02  0.60248614E-01  0.18770501E-08  0.36256219E-01 -0.76591061E-02  0.26237509E-01
   10    8    0.15002893E-02  0.26237503E-01  0.39072130E-01  0.36256212E-01  0.15002887E-02  0.60248605E-01
    1    9   -0.30297939E+00 -0.12752656E-01 -0.26738872E+00 -0.42955076E-01 -0.30297938E+00  0.11754713E-01
    2    9    0.18541272E-01 -0.11754715E-01 -0.23145077E-08  0.42955072E-01 -0.18541278E-01  0.12752650E-01
    3    9    0.17377987E-01  0.11382848E-01  0.75184635E-01  0.12929199E-01  0.17377982E-01 -0.36149622E-02
    4    9    0.56450014E-02  0.36149617E-02 -0.16861944E-08 -0.12929200E-01 -0.56450082E-02 -0.11382853E-01
    5    9    0.13517166E+00  0.65613585E-01  0.10320763E+00  0.27659686E-01  0.13517166E+00  0.45695479E-01
    6    9   -0.99191107E-02 -0.45695477E-01  0.54946758E-09 -0.27659687E-01  0.99191122E-02 -0.65613585E-01
    7    9   -0.75558402E-01 -0.13891233E-01 -0.36904027E-01 -0.22906789E-01 -0.75558401E-01 -0.38640040E-01
    8    9   -0.34962874E-02  0.38640036E-01 -0.18454458E-08  0.22906787E-01  0.34962840E-02  0.13891234E-01
    9    9   -0.48913236E+00  0.33901715E+00  0.97816587E+00  0.27877420E+00 -0.84283217E+00  0.18843875E+00
   10    9   -0.81903851E-03 -0.38723448E-01 -0.82502601E-08 -0.39373475E-01  0.81902180E-03 -0.53750645E-01
    1   10   -0.18541269E-01 -0.11754714E-01  0.50627221E-08  0.42955075E-01  0.18541280E-01  0.12752652E-01
    2   10   -0.30297939E+00  0.12752658E-01 -0.26738872E+00  0.42955077E-01 -0.30297938E+00 -0.11754713E-01
    3   10   -0.56450016E-02  0.36149604E-02 -0.12245413E-09 -0.12929201E-01  0.56450079E-02 -0.11382855E-01
    4   10    0.17377987E-01 -0.11382851E-01  0.75184635E-01 -0.12929203E-01  0.17377982E-01  0.36149606E-02
    5   10    0.99191120E-02 -0.45695477E-01  0.91259961E-09 -0.27659687E-01 -0.99191095E-02 -0.65613585E-01
    6   10    0.13517166E+00 -0.65613586E-01  0.10320763E+00 -0.27659687E-01  0.13517166E+00 -0.45695479E-01
    7   10    0.34962845E-02  0.38640038E-01  0.11868465E-08  0.22906789E-01 -0.34962854E-02  0.13891235E-01
    8   10   -0.75558404E-01  0.13891234E-01 -0.36904029E-01  0.22906789E-01 -0.75558402E-01  0.38640039E-01
    9   10    0.81903306E-03 -0.38723448E-01  0.32396344E-08 -0.39373476E-01 -0.81902727E-03 -0.53750644E-01
   10   10   -0.48913236E+00 -0.33901714E+00  0.97816587E+00 -0.27877421E+00 -0.84283217E+00 -0.18843876E+00
