SOC
   0.00                     !scissors operator
   9.2403                   !efermi
   3.5717025864237320        6.4991244369867793        6.4991244369867793
   6.4991244369867793        3.5717025864237320        6.4991244369867793
   6.4991244369867793        6.4991244369867793        3.5717025864237320
 written on  1Nov2023 at 16:06:55 
          10
          37
    2    2    3    1    3    1    1    2    1    1    1    3    2    2    1
    1    2    1    1    1    2    1    1    2    2    3    1    1    1    2
    1    1    3    1    3    2    2
   -2    0    1    1    1    0.151609    0.011663
   -2    0    1    2    1    0.000000   -0.011663
   -2    0    1    3    1    0.175450   -0.011661
   -2    0    1    4    1    0.000000    0.011661
   -2    0    1    5    1    0.042364    0.002483
   -2    0    1    6    1   -0.000000   -0.002483
   -2    0    1    7    1    0.081700   -0.030101
   -2    0    1    8    1   -0.000000    0.030101
   -2    0    1    9    1    0.099790   -0.015539
   -2    0    1   10    1   -0.000000    0.015539
   -2    0    1    1    2   -0.000000   -0.011663
   -2    0    1    2    2    0.151609   -0.011663
   -2    0    1    3    2   -0.000000    0.011661
   -2    0    1    4    2    0.175450    0.011661
   -2    0    1    5    2    0.000000   -0.002483
   -2    0    1    6    2    0.042364   -0.002483
   -2    0    1    7    2   -0.000000    0.030101
   -2    0    1    8    2    0.081700    0.030101
   -2    0    1    9    2   -0.000000    0.015539
   -2    0    1   10    2    0.099790    0.015539
   -2    0    1    1    3    0.065512   -0.031754
   -2    0    1    2    3   -0.000000    0.031754
   -2    0    1    3    3   -0.006727    0.021266
   -2    0    1    4    3    0.000000   -0.021266
   -2    0    1    5    3    0.137632   -0.024158
   -2    0    1    6    3   -0.000000    0.024158
   -2    0    1    7    3   -0.051407    0.040985
   -2    0    1    8    3    0.000000   -0.040985
   -2    0    1    9    3   -0.030738   -0.009062
   -2    0    1   10    3    0.000000    0.009062
   -2    0    1    1    4    0.000000    0.031754
   -2    0    1    2    4    0.065512    0.031754
   -2    0    1    3    4   -0.000000   -0.021266
   -2    0    1    4    4   -0.006727   -0.021266
   -2    0    1    5    4    0.000000    0.024158
   -2    0    1    6    4    0.137632    0.024158
   -2    0    1    7    4   -0.000000   -0.040985
   -2    0    1    8    4   -0.051407   -0.040985
   -2    0    1    9    4    0.000000    0.009062
   -2    0    1   10    4   -0.030738    0.009062
   -2    0    1    1    5   -0.044239    0.024426
   -2    0    1    2    5    0.000000   -0.024426
   -2    0    1    3    5    0.168002    0.050373
   -2    0    1    4    5    0.000000   -0.050373
   -2    0    1    5    5   -0.010275    0.010519
   -2    0    1    6    5   -0.000000   -0.010519
   -2    0    1    7    5    0.118696   -0.007346
   -2    0    1    8    5    0.000000    0.007346
   -2    0    1    9    5    0.087744   -0.002398
   -2    0    1   10    5    0.000000    0.002398
   -2    0    1    1    6   -0.000000   -0.024426
   -2    0    1    2    6   -0.044239   -0.024426
   -2    0    1    3    6    0.000000   -0.050373
   -2    0    1    4    6    0.168002   -0.050373
   -2    0    1    5    6    0.000000   -0.010519
   -2    0    1    6    6   -0.010275   -0.010519
   -2    0    1    7    6   -0.000000    0.007346
   -2    0    1    8    6    0.118696    0.007346
   -2    0    1    9    6   -0.000000    0.002398
   -2    0    1   10    6    0.087744    0.002398
   -2    0    1    1    7   -0.062997    0.055864
   -2    0    1    2    7    0.000000   -0.055864
   -2    0    1    3    7    0.073079   -0.025667
   -2    0    1    4    7    0.000000    0.025667
   -2    0    1    5    7    0.032526   -0.011849
   -2    0    1    6    7   -0.000000    0.011849
   -2    0    1    7    7    0.031269    0.027249
   -2    0    1    8    7    0.000000   -0.027249
   -2    0    1    9    7   -0.005472   -0.080815
   -2    0    1   10    7    0.000000    0.080815
   -2    0    1    1    8   -0.000000   -0.055864
   -2    0    1    2    8   -0.062997   -0.055864
   -2    0    1    3    8   -0.000000    0.025667
   -2    0    1    4    8    0.073079    0.025667
   -2    0    1    5    8    0.000000    0.011849
   -2    0    1    6    8    0.032526    0.011849
   -2    0    1    7    8   -0.000000   -0.027249
   -2    0    1    8    8    0.031269   -0.027249
   -2    0    1    9    8   -0.000000    0.080815
   -2    0    1   10    8   -0.005472    0.080815
   -2    0    1    1    9    0.083794    0.013862
   -2    0    1    2    9   -0.000000   -0.013862
   -2    0    1    3    9   -0.073519   -0.008553
   -2    0    1    4    9    0.000000    0.008553
   -2    0    1    5    9    0.056638    0.024022
   -2    0    1    6    9   -0.000000   -0.024022
   -2    0    1    7    9   -0.037205    0.050993
   -2    0    1    8    9   -0.000000   -0.050993
   -2    0    1    9    9   -0.117426   -0.012634
   -2    0    1   10    9   -0.000000    0.012634
   -2    0    1    1   10   -0.000000   -0.013862
   -2    0    1    2   10    0.083794   -0.013862
   -2    0    1    3   10   -0.000000    0.008553
   -2    0    1    4   10   -0.073519    0.008553
   -2    0    1    5   10    0.000000   -0.024022
   -2    0    1    6   10    0.056638   -0.024022
   -2    0    1    7   10    0.000000   -0.050993
   -2    0    1    8   10   -0.037205   -0.050993
   -2    0    1    9   10   -0.000000    0.012634
   -2    0    1   10   10   -0.117426    0.012634
   -2    1    0    1    1   -0.056706    0.063159
   -2    1    0    2    1   -0.016312   -0.011449
   -2    1    0    3    1   -0.121733   -0.024437
   -2    1    0    4    1    0.066783    0.039640
   -2    1    0    5    1    0.055477    0.076493
   -2    1    0    6    1    0.023639    0.014093
   -2    1    0    7    1    0.064155    0.013374
   -2    1    0    8    1    0.034747   -0.091814
   -2    1    0    9    1    0.057828    0.008527
   -2    1    0   10    1    0.015473   -0.050756
   -2    1    0    1    2    0.016312   -0.011449
   -2    1    0    2    2   -0.056706   -0.063159
   -2    1    0    3    2   -0.066783    0.039640
   -2    1    0    4    2   -0.121733    0.024437
   -2    1    0    5    2   -0.023639    0.014093
   -2    1    0    6    2    0.055477   -0.076493
   -2    1    0    7    2   -0.034747   -0.091814
   -2    1    0    8    2    0.064155   -0.013374
   -2    1    0    9    2   -0.015473   -0.050756
   -2    1    0   10    2    0.057828   -0.008527
   -2    1    0    1    3    0.105286    0.078356
   -2    1    0    2    3   -0.039688    0.048213
   -2    1    0    3    3    0.011279   -0.020131
   -2    1    0    4    3   -0.076382   -0.024633
   -2    1    0    5    3   -0.024064   -0.010855
   -2    1    0    6    3    0.006479   -0.058710
   -2    1    0    7    3    0.006357   -0.013339
   -2    1    0    8    3   -0.012745   -0.025245
   -2    1    0    9    3    0.037978    0.003387
   -2    1    0   10    3   -0.016207    0.016931
   -2    1    0    1    4    0.039688    0.048213
   -2    1    0    2    4    0.105286   -0.078356
   -2    1    0    3    4    0.076382   -0.024633
   -2    1    0    4    4    0.011279    0.020131
   -2    1    0    5    4   -0.006479   -0.058710
   -2    1    0    6    4   -0.024064    0.010855
   -2    1    0    7    4    0.012745   -0.025245
   -2    1    0    8    4    0.006357    0.013339
   -2    1    0    9    4    0.016207    0.016931
   -2    1    0   10    4    0.037978   -0.003387
   -2    1    0    1    5   -0.049945   -0.051947
   -2    1    0    2    5   -0.024979    0.011384
   -2    1    0    3    5   -0.039840   -0.044955
   -2    1    0    4    5    0.011644    0.008871
   -2    1    0    5    5   -0.000006    0.016759
   -2    1    0    6    5   -0.000017   -0.011540
   -2    1    0    7    5    0.046931   -0.012097
   -2    1    0    8    5    0.002539    0.012214
   -2    1    0    9    5    0.020240   -0.088410
   -2    1    0   10    5   -0.005082    0.011660
   -2    1    0    1    6    0.024979    0.011384
   -2    1    0    2    6   -0.049945    0.051947
   -2    1    0    3    6   -0.011644    0.008871
   -2    1    0    4    6   -0.039840    0.044955
   -2    1    0    5    6    0.000017   -0.011540
   -2    1    0    6    6   -0.000006   -0.016759
   -2    1    0    7    6   -0.002539    0.012214
   -2    1    0    8    6    0.046931    0.012097
   -2    1    0    9    6    0.005082    0.011660
   -2    1    0   10    6    0.020240    0.088410
   -2    1    0    1    7    0.074989    0.009752
   -2    1    0    2    7   -0.003283   -0.004890
   -2    1    0    3    7   -0.041362   -0.005529
   -2    1    0    4    7   -0.028787    0.024014
   -2    1    0    5    7    0.187865    0.045196
   -2    1    0    6    7    0.001279    0.008985
   -2    1    0    7    7    0.027859   -0.021776
   -2    1    0    8    7   -0.003820    0.047824
   -2    1    0    9    7   -0.016315    0.000783
   -2    1    0   10    7   -0.036142    0.018738
   -2    1    0    1    8    0.003283   -0.004890
   -2    1    0    2    8    0.074989   -0.009752
   -2    1    0    3    8    0.028787    0.024014
   -2    1    0    4    8   -0.041362    0.005529
   -2    1    0    5    8   -0.001279    0.008985
   -2    1    0    6    8    0.187865   -0.045196
   -2    1    0    7    8    0.003820    0.047824
   -2    1    0    8    8    0.027859    0.021776
   -2    1    0    9    8    0.036142    0.018738
   -2    1    0   10    8   -0.016315   -0.000783
   -2    1    0    1    9    0.025002   -0.023075
   -2    1    0    2    9    0.023793   -0.022196
   -2    1    0    3    9    0.033068    0.014615
   -2    1    0    4    9   -0.052524    0.009403
   -2    1    0    5    9    0.057536    0.043534
   -2    1    0    6    9   -0.032332   -0.001352
   -2    1    0    7    9    0.066266    0.064167
   -2    1    0    8    9    0.029996   -0.052629
   -2    1    0    9    9    0.066025   -0.035159
   -2    1    0   10    9    0.081994    0.020594
   -2    1    0    1   10   -0.023793   -0.022196
   -2    1    0    2   10    0.025002    0.023075
   -2    1    0    3   10    0.052524    0.009403
   -2    1    0    4   10    0.033068   -0.014615
   -2    1    0    5   10    0.032332   -0.001352
   -2    1    0    6   10    0.057536   -0.043534
   -2    1    0    7   10   -0.029996   -0.052629
   -2    1    0    8   10    0.066266   -0.064167
   -2    1    0    9   10   -0.081994    0.020594
   -2    1    0   10   10    0.066025    0.035159
   -2    1    1    1    1   -0.011618    0.041726
   -2    1    1    2    1   -0.000000   -0.041726
   -2    1    1    3    1    0.150335    0.007764
   -2    1    1    4    1    0.000000   -0.007764
   -2    1    1    5    1    0.005776    0.054536
   -2    1    1    6    1   -0.000000   -0.054536
   -2    1    1    7    1    0.207866    0.014344
   -2    1    1    8    1    0.000000   -0.014344
   -2    1    1    9    1    0.188010   -0.017922
   -2    1    1   10    1   -0.000000    0.017922
   -2    1    1    1    2   -0.000000   -0.041726
   -2    1    1    2    2   -0.011618   -0.041726
   -2    1    1    3    2   -0.000000   -0.007764
   -2    1    1    4    2    0.150335   -0.007764
   -2    1    1    5    2    0.000000   -0.054536
   -2    1    1    6    2    0.005776   -0.054536
   -2    1    1    7    2    0.000000   -0.014344
   -2    1    1    8    2    0.207866   -0.014344
   -2    1    1    9    2   -0.000000    0.017922
   -2    1    1   10    2    0.188010    0.017922
   -2    1    1    1    3    0.081371    0.012828
   -2    1    1    2    3    0.000000   -0.012828
   -2    1    1    3    3   -0.071384    0.011778
   -2    1    1    4    3    0.000000   -0.011778
   -2    1    1    5    3   -0.061941   -0.002648
   -2    1    1    6    3    0.000000    0.002648
   -2    1    1    7    3    0.078038    0.008813
   -2    1    1    8    3   -0.000000   -0.008813
   -2    1    1    9    3   -0.049796   -0.006707
   -2    1    1   10    3    0.000000    0.006707
   -2    1    1    1    4    0.000000   -0.012828
   -2    1    1    2    4    0.081371   -0.012828
   -2    1    1    3    4    0.000000   -0.011778
   -2    1    1    4    4   -0.071384   -0.011778
   -2    1    1    5    4   -0.000000    0.002648
   -2    1    1    6    4   -0.061941    0.002648
   -2    1    1    7    4    0.000000   -0.008813
   -2    1    1    8    4    0.078038   -0.008813
   -2    1    1    9    4    0.000000    0.006707
   -2    1    1   10    4   -0.049796    0.006707
   -2    1    1    1    5    0.112347    0.001120
   -2    1    1    2    5    0.000000   -0.001120
   -2    1    1    3    5   -0.000897    0.001008
   -2    1    1    4    5    0.000000   -0.001008
   -2    1    1    5    5   -0.021465    0.004375
   -2    1    1    6    5   -0.000000   -0.004375
   -2    1    1    7    5    0.052609    0.036741
   -2    1    1    8    5    0.000000   -0.036741
   -2    1    1    9    5   -0.078470    0.034339
   -2    1    1   10    5   -0.000000   -0.034339
   -2    1    1    1    6   -0.000000   -0.001120
   -2    1    1    2    6    0.112347   -0.001120
   -2    1    1    3    6    0.000000   -0.001008
   -2    1    1    4    6   -0.000897   -0.001008
   -2    1    1    5    6    0.000000   -0.004375
   -2    1    1    6    6   -0.021465   -0.004375
   -2    1    1    7    6   -0.000000   -0.036741
   -2    1    1    8    6    0.052609   -0.036741
   -2    1    1    9    6   -0.000000   -0.034339
   -2    1    1   10    6   -0.078470   -0.034339
   -2    1    1    1    7    0.148587    0.015771
   -2    1    1    2    7    0.000000   -0.015771
   -2    1    1    3    7   -0.025369    0.028181
   -2    1    1    4    7   -0.000000   -0.028181
   -2    1    1    5    7    0.151373    0.014445
   -2    1    1    6    7   -0.000000   -0.014445
   -2    1    1    7    7    0.037914   -0.006994
   -2    1    1    8    7   -0.000000    0.006994
   -2    1    1    9    7   -0.177556   -0.039630
   -2    1    1   10    7   -0.000000    0.039630
   -2    1    1    1    8   -0.000000   -0.015771
   -2    1    1    2    8    0.148587   -0.015771
   -2    1    1    3    8    0.000000   -0.028181
   -2    1    1    4    8   -0.025369   -0.028181
   -2    1    1    5    8   -0.000000   -0.014445
   -2    1    1    6    8    0.151373   -0.014445
   -2    1    1    7    8   -0.000000    0.006994
   -2    1    1    8    8    0.037914    0.006994
   -2    1    1    9    8    0.000000    0.039630
   -2    1    1   10    8   -0.177556    0.039630
   -2    1    1    1    9    0.087418   -0.008204
   -2    1    1    2    9    0.000000    0.008204
   -2    1    1    3    9    0.196101    0.026695
   -2    1    1    4    9   -0.000000   -0.026695
   -2    1    1    5    9   -0.071223    0.003865
   -2    1    1    6    9   -0.000000   -0.003865
   -2    1    1    7    9   -0.002494   -0.054060
   -2    1    1    8    9    0.000000    0.054060
   -2    1    1    9    9    0.048637   -0.038991
   -2    1    1   10    9    0.000000    0.038991
   -2    1    1    1   10   -0.000000    0.008204
   -2    1    1    2   10    0.087418    0.008204
   -2    1    1    3   10    0.000000   -0.026695
   -2    1    1    4   10    0.196101   -0.026695
   -2    1    1    5   10   -0.000000   -0.003865
   -2    1    1    6   10   -0.071223   -0.003865
   -2    1    1    7   10   -0.000000    0.054060
   -2    1    1    8   10   -0.002494    0.054060
   -2    1    1    9   10   -0.000000    0.038991
   -2    1    1   10   10    0.048637    0.038991
   -1   -1    1    1    1   -0.006322   -0.066938
   -1   -1    1    2    1    0.003877   -0.027763
   -1   -1    1    3    1    0.010192    0.003240
   -1   -1    1    4    1    0.063009    0.017879
   -1   -1    1    5    1    0.062550   -0.056319
   -1   -1    1    6    1    0.008208   -0.011915
   -1   -1    1    7    1   -0.122363   -0.083495
   -1   -1    1    8    1    0.032220   -0.094906
   -1   -1    1    9    1   -0.073727   -0.002451
   -1   -1    1   10    1    0.082269   -0.009122
   -1   -1    1    1    2   -0.003877   -0.027763
   -1   -1    1    2    2   -0.006322    0.066938
   -1   -1    1    3    2   -0.063009    0.017879
   -1   -1    1    4    2    0.010192   -0.003240
   -1   -1    1    5    2   -0.008208   -0.011915
   -1   -1    1    6    2    0.062550    0.056319
   -1   -1    1    7    2   -0.032220   -0.094906
   -1   -1    1    8    2   -0.122363    0.083495
   -1   -1    1    9    2   -0.082269   -0.009122
   -1   -1    1   10    2   -0.073727    0.002451
   -1   -1    1    1    3   -0.122719    0.072685
   -1   -1    1    2    3    0.007689    0.059240
   -1   -1    1    3    3   -0.031143    0.025771
   -1   -1    1    4    3    0.053847    0.008879
   -1   -1    1    5    3    0.059719    0.142315
   -1   -1    1    6    3   -0.023943    0.046179
   -1   -1    1    7    3    0.037493   -0.009648
   -1   -1    1    8    3   -0.030535    0.001942
   -1   -1    1    9    3    0.054979    0.050643
   -1   -1    1   10    3   -0.030222   -0.031861
   -1   -1    1    1    4   -0.007689    0.059240
   -1   -1    1    2    4   -0.122719   -0.072685
   -1   -1    1    3    4   -0.053847    0.008879
   -1   -1    1    4    4   -0.031143   -0.025771
   -1   -1    1    5    4    0.023943    0.046179
   -1   -1    1    6    4    0.059719   -0.142315
   -1   -1    1    7    4    0.030535    0.001942
   -1   -1    1    8    4    0.037493    0.009648
   -1   -1    1    9    4    0.030222   -0.031861
   -1   -1    1   10    4    0.054979   -0.050643
   -1   -1    1    1    5   -0.040911   -0.033579
   -1   -1    1    2    5   -0.015694   -0.048653
   -1   -1    1    3    5    0.027971   -0.030413
   -1   -1    1    4    5    0.015477    0.007396
   -1   -1    1    5    5    0.022601   -0.024163
   -1   -1    1    6    5    0.003408   -0.026735
   -1   -1    1    7    5    0.219298    0.002376
   -1   -1    1    8    5    0.008742    0.026506
   -1   -1    1    9    5   -0.084034    0.007359
   -1   -1    1   10    5    0.001889   -0.004647
   -1   -1    1    1    6    0.015694   -0.048653
   -1   -1    1    2    6   -0.040911    0.033579
   -1   -1    1    3    6   -0.015477    0.007396
   -1   -1    1    4    6    0.027971    0.030413
   -1   -1    1    5    6   -0.003408   -0.026735
   -1   -1    1    6    6    0.022601    0.024163
   -1   -1    1    7    6   -0.008742    0.026506
   -1   -1    1    8    6    0.219298   -0.002376
   -1   -1    1    9    6   -0.001889   -0.004647
   -1   -1    1   10    6   -0.084034   -0.007359
   -1   -1    1    1    7    0.157053    0.053408
   -1   -1    1    2    7   -0.012616   -0.013215
   -1   -1    1    3    7    0.057086    0.007150
   -1   -1    1    4    7   -0.045120   -0.015273
   -1   -1    1    5    7   -0.036586    0.018333
   -1   -1    1    6    7    0.048707   -0.007125
   -1   -1    1    7    7   -0.057913   -0.024406
   -1   -1    1    8    7    0.013859    0.009066
   -1   -1    1    9    7    0.035879    0.111110
   -1   -1    1   10    7   -0.027507    0.000905
   -1   -1    1    1    8    0.012616   -0.013215
   -1   -1    1    2    8    0.157053   -0.053408
   -1   -1    1    3    8    0.045120   -0.015273
   -1   -1    1    4    8    0.057086   -0.007150
   -1   -1    1    5    8   -0.048707   -0.007125
   -1   -1    1    6    8   -0.036586   -0.018333
   -1   -1    1    7    8   -0.013859    0.009066
   -1   -1    1    8    8   -0.057913    0.024406
   -1   -1    1    9    8    0.027507    0.000905
   -1   -1    1   10    8    0.035879   -0.111110
   -1   -1    1    1    9    0.033534    0.021297
   -1   -1    1    2    9    0.055072    0.026407
   -1   -1    1    3    9   -0.100810   -0.029734
   -1   -1    1    4    9    0.009707    0.059610
   -1   -1    1    5    9   -0.033040   -0.010800
   -1   -1    1    6    9    0.014351    0.077203
   -1   -1    1    7    9    0.018305   -0.086364
   -1   -1    1    8    9    0.056268    0.056450
   -1   -1    1    9    9    0.050315    0.022089
   -1   -1    1   10    9    0.015446   -0.003129
   -1   -1    1    1   10   -0.055072    0.026407
   -1   -1    1    2   10    0.033534   -0.021297
   -1   -1    1    3   10   -0.009707    0.059610
   -1   -1    1    4   10   -0.100810    0.029734
   -1   -1    1    5   10   -0.014351    0.077203
   -1   -1    1    6   10   -0.033040    0.010800
   -1   -1    1    7   10   -0.056268    0.056450
   -1   -1    1    8   10    0.018305    0.086364
   -1   -1    1    9   10   -0.015446   -0.003129
   -1   -1    1   10   10    0.050315   -0.022089
   -1   -1    2    1    1   -0.011618   -0.041726
   -1   -1    2    2    1   -0.000000    0.041726
   -1   -1    2    3    1    0.081371   -0.012828
   -1   -1    2    4    1    0.000000    0.012828
   -1   -1    2    5    1    0.112347   -0.001120
   -1   -1    2    6    1   -0.000000    0.001120
   -1   -1    2    7    1    0.148587   -0.015771
   -1   -1    2    8    1    0.000000    0.015771
   -1   -1    2    9    1    0.087418    0.008204
   -1   -1    2   10    1    0.000000   -0.008204
   -1   -1    2    1    2   -0.000000    0.041726
   -1   -1    2    2    2   -0.011618    0.041726
   -1   -1    2    3    2   -0.000000    0.012828
   -1   -1    2    4    2    0.081371    0.012828
   -1   -1    2    5    2    0.000000    0.001120
   -1   -1    2    6    2    0.112347    0.001120
   -1   -1    2    7    2    0.000000    0.015771
   -1   -1    2    8    2    0.148587    0.015771
   -1   -1    2    9    2   -0.000000   -0.008204
   -1   -1    2   10    2    0.087418   -0.008204
   -1   -1    2    1    3    0.150335   -0.007764
   -1   -1    2    2    3    0.000000    0.007764
   -1   -1    2    3    3   -0.071384   -0.011778
   -1   -1    2    4    3    0.000000    0.011778
   -1   -1    2    5    3   -0.000897   -0.001008
   -1   -1    2    6    3   -0.000000    0.001008
   -1   -1    2    7    3   -0.025369   -0.028181
   -1   -1    2    8    3   -0.000000    0.028181
   -1   -1    2    9    3    0.196101   -0.026695
   -1   -1    2   10    3   -0.000000    0.026695
   -1   -1    2    1    4   -0.000000    0.007764
   -1   -1    2    2    4    0.150335    0.007764
   -1   -1    2    3    4    0.000000    0.011778
   -1   -1    2    4    4   -0.071384    0.011778
   -1   -1    2    5    4    0.000000    0.001008
   -1   -1    2    6    4   -0.000897    0.001008
   -1   -1    2    7    4    0.000000    0.028181
   -1   -1    2    8    4   -0.025369    0.028181
   -1   -1    2    9    4    0.000000    0.026695
   -1   -1    2   10    4    0.196101    0.026695
   -1   -1    2    1    5    0.005776   -0.054536
   -1   -1    2    2    5    0.000000    0.054536
   -1   -1    2    3    5   -0.061941    0.002648
   -1   -1    2    4    5    0.000000   -0.002648
   -1   -1    2    5    5   -0.021465   -0.004375
   -1   -1    2    6    5    0.000000    0.004375
   -1   -1    2    7    5    0.151373   -0.014445
   -1   -1    2    8    5   -0.000000    0.014445
   -1   -1    2    9    5   -0.071223   -0.003865
   -1   -1    2   10    5   -0.000000    0.003865
   -1   -1    2    1    6   -0.000000    0.054536
   -1   -1    2    2    6    0.005776    0.054536
   -1   -1    2    3    6   -0.000000   -0.002648
   -1   -1    2    4    6   -0.061941   -0.002648
   -1   -1    2    5    6   -0.000000    0.004375
   -1   -1    2    6    6   -0.021465    0.004375
   -1   -1    2    7    6   -0.000000    0.014445
   -1   -1    2    8    6    0.151373    0.014445
   -1   -1    2    9    6   -0.000000    0.003865
   -1   -1    2   10    6   -0.071223    0.003865
   -1   -1    2    1    7    0.207866   -0.014344
   -1   -1    2    2    7    0.000000    0.014344
   -1   -1    2    3    7    0.078038   -0.008813
   -1   -1    2    4    7   -0.000000    0.008813
   -1   -1    2    5    7    0.052609   -0.036741
   -1   -1    2    6    7    0.000000    0.036741
   -1   -1    2    7    7    0.037914    0.006994
   -1   -1    2    8    7   -0.000000   -0.006994
   -1   -1    2    9    7   -0.002494    0.054060
   -1   -1    2   10    7   -0.000000   -0.054060
   -1   -1    2    1    8   -0.000000    0.014344
   -1   -1    2    2    8    0.207866    0.014344
   -1   -1    2    3    8    0.000000    0.008813
   -1   -1    2    4    8    0.078038    0.008813
   -1   -1    2    5    8   -0.000000    0.036741
   -1   -1    2    6    8    0.052609    0.036741
   -1   -1    2    7    8   -0.000000   -0.006994
   -1   -1    2    8    8    0.037914   -0.006994
   -1   -1    2    9    8    0.000000   -0.054060
   -1   -1    2   10    8   -0.002494   -0.054060
   -1   -1    2    1    9    0.188010    0.017922
   -1   -1    2    2    9    0.000000   -0.017922
   -1   -1    2    3    9   -0.049796    0.006707
   -1   -1    2    4    9    0.000000   -0.006707
   -1   -1    2    5    9   -0.078470   -0.034339
   -1   -1    2    6    9   -0.000000    0.034339
   -1   -1    2    7    9   -0.177556    0.039630
   -1   -1    2    8    9    0.000000   -0.039630
   -1   -1    2    9    9    0.048637    0.038991
   -1   -1    2   10    9    0.000000   -0.038991
   -1   -1    2    1   10   -0.000000   -0.017922
   -1   -1    2    2   10    0.188010   -0.017922
   -1   -1    2    3   10    0.000000   -0.006707
   -1   -1    2    4   10   -0.049796   -0.006707
   -1   -1    2    5   10   -0.000000    0.034339
   -1   -1    2    6   10   -0.078470    0.034339
   -1   -1    2    7   10   -0.000000   -0.039630
   -1   -1    2    8   10   -0.177556   -0.039630
   -1   -1    2    9   10   -0.000000   -0.038991
   -1   -1    2   10   10    0.048637   -0.038991
   -1    0    0    1    1   -0.091958   -0.068250
   -1    0    0    2    1   -0.033497    0.000687
   -1    0    0    3    1   -0.060979   -0.029981
   -1    0    0    4    1    0.018182    0.015644
   -1    0    0    5    1   -0.053989    0.052795
   -1    0    0    6    1    0.013780    0.025639
   -1    0    0    7    1    0.052377    0.021633
   -1    0    0    8    1   -0.062689    0.000979
   -1    0    0    9    1   -0.078802   -0.093712
   -1    0    0   10    1    0.004082    0.002930
   -1    0    0    1    2    0.033497    0.000687
   -1    0    0    2    2   -0.091958    0.068250
   -1    0    0    3    2   -0.018182    0.015644
   -1    0    0    4    2   -0.060979    0.029981
   -1    0    0    5    2   -0.013780    0.025639
   -1    0    0    6    2   -0.053989   -0.052795
   -1    0    0    7    2    0.062689    0.000979
   -1    0    0    8    2    0.052377   -0.021633
   -1    0    0    9    2   -0.004082    0.002930
   -1    0    0   10    2   -0.078802    0.093712
   -1    0    0    1    3    0.006464    0.083665
   -1    0    0    2    3   -0.007537    0.007989
   -1    0    0    3    3    0.015249   -0.003206
   -1    0    0    4    3    0.080073    0.004489
   -1    0    0    5    3    0.005632    0.065442
   -1    0    0    6    3    0.001678   -0.046311
   -1    0    0    7    3    0.007011   -0.018628
   -1    0    0    8    3    0.019853    0.036367
   -1    0    0    9    3   -0.040634    0.030258
   -1    0    0   10    3    0.013032    0.018993
   -1    0    0    1    4    0.007537    0.007989
   -1    0    0    2    4    0.006464   -0.083665
   -1    0    0    3    4   -0.080073    0.004489
   -1    0    0    4    4    0.015249    0.003206
   -1    0    0    5    4   -0.001678   -0.046311
   -1    0    0    6    4    0.005632   -0.065442
   -1    0    0    7    4   -0.019853    0.036367
   -1    0    0    8    4    0.007011    0.018628
   -1    0    0    9    4   -0.013032    0.018993
   -1    0    0   10    4   -0.040634   -0.030258
   -1    0    0    1    5    0.105723   -0.088006
   -1    0    0    2    5   -0.004833    0.001112
   -1    0    0    3    5   -0.089199   -0.074182
   -1    0    0    4    5   -0.010307   -0.039886
   -1    0    0    5    5   -0.008435   -0.019031
   -1    0    0    6    5   -0.012991    0.006405
   -1    0    0    7    5   -0.146705    0.033213
   -1    0    0    8    5    0.020438   -0.041640
   -1    0    0    9    5   -0.154832    0.034817
   -1    0    0   10    5    0.057153    0.019213
   -1    0    0    1    6    0.004833    0.001112
   -1    0    0    2    6    0.105723    0.088006
   -1    0    0    3    6    0.010307   -0.039886
   -1    0    0    4    6   -0.089199    0.074182
   -1    0    0    5    6    0.012991    0.006405
   -1    0    0    6    6   -0.008435    0.019031
   -1    0    0    7    6   -0.020438   -0.041640
   -1    0    0    8    6   -0.146705   -0.033213
   -1    0    0    9    6   -0.057153    0.019213
   -1    0    0   10    6   -0.154832   -0.034817
   -1    0    0    1    7   -0.090312   -0.036224
   -1    0    0    2    7   -0.002300   -0.014600
   -1    0    0    3    7   -0.078226   -0.047027
   -1    0    0    4    7   -0.026932   -0.044170
   -1    0    0    5    7   -0.013144    0.027705
   -1    0    0    6    7   -0.001496   -0.004720
   -1    0    0    7    7    0.038608    0.039126
   -1    0    0    8    7    0.003104    0.006175
   -1    0    0    9    7   -0.004435   -0.079708
   -1    0    0   10    7    0.039799    0.010814
   -1    0    0    1    8    0.002300   -0.014600
   -1    0    0    2    8   -0.090312    0.036224
   -1    0    0    3    8    0.026932   -0.044170
   -1    0    0    4    8   -0.078226    0.047027
   -1    0    0    5    8    0.001496   -0.004720
   -1    0    0    6    8   -0.013144   -0.027705
   -1    0    0    7    8   -0.003104    0.006175
   -1    0    0    8    8    0.038608   -0.039126
   -1    0    0    9    8   -0.039799    0.010814
   -1    0    0   10    8   -0.004435    0.079708
   -1    0    0    1    9   -0.113804   -0.039480
   -1    0    0    2    9   -0.026500    0.049801
   -1    0    0    3    9    0.187295    0.057490
   -1    0    0    4    9   -0.029965    0.023578
   -1    0    0    5    9    0.004007   -0.009281
   -1    0    0    6    9   -0.020589   -0.017313
   -1    0    0    7    9   -0.118511    0.027842
   -1    0    0    8    9   -0.010357    0.066884
   -1    0    0    9    9    0.052152    0.021690
   -1    0    0   10    9   -0.047503    0.010634
   -1    0    0    1   10    0.026500    0.049801
   -1    0    0    2   10   -0.113804    0.039480
   -1    0    0    3   10    0.029965    0.023578
   -1    0    0    4   10    0.187295   -0.057490
   -1    0    0    5   10    0.020589   -0.017313
   -1    0    0    6   10    0.004007    0.009281
   -1    0    0    7   10    0.010357    0.066884
   -1    0    0    8   10   -0.118511   -0.027842
   -1    0    0    9   10    0.047503    0.010634
   -1    0    0   10   10    0.052152   -0.021690
   -1    0    1    1    1   -0.023710   -0.034248
   -1    0    1    2    1   -0.026548   -0.034248
   -1    0    1    3    1    0.011214   -0.032775
   -1    0    1    4    1    0.000385   -0.047556
   -1    0    1    5    1   -0.091216    0.010577
   -1    0    1    6    1    0.005854    0.039544
   -1    0    1    7    1    0.048373   -0.018815
   -1    0    1    8    1   -0.040624    0.057924
   -1    0    1    9    1    0.001986    0.024256
   -1    0    1   10    1   -0.023546   -0.016085
   -1    0    1    1    2    0.026548   -0.034248
   -1    0    1    2    2   -0.023710    0.034248
   -1    0    1    3    2   -0.000385   -0.047556
   -1    0    1    4    2    0.011214    0.032775
   -1    0    1    5    2   -0.005854    0.039544
   -1    0    1    6    2   -0.091216   -0.010577
   -1    0    1    7    2    0.040624    0.057924
   -1    0    1    8    2    0.048373    0.018815
   -1    0    1    9    2    0.023546   -0.016085
   -1    0    1   10    2    0.001986   -0.024256
   -1    0    1    1    3    0.011214   -0.047556
   -1    0    1    2    3    0.000385   -0.032775
   -1    0    1    3    3   -0.195207    0.049977
   -1    0    1    4    3    0.150054    0.049977
   -1    0    1    5    3   -0.001539   -0.020801
   -1    0    1    6    3   -0.022908   -0.060672
   -1    0    1    7    3    0.049665   -0.017152
   -1    0    1    8    3    0.029426   -0.014090
   -1    0    1    9    3    0.038669    0.065654
   -1    0    1   10    3   -0.003332    0.035285
   -1    0    1    1    4   -0.000385   -0.032775
   -1    0    1    2    4    0.011214    0.047556
   -1    0    1    3    4   -0.150054    0.049977
   -1    0    1    4    4   -0.195207   -0.049977
   -1    0    1    5    4    0.022908   -0.060672
   -1    0    1    6    4   -0.001539    0.020801
   -1    0    1    7    4   -0.029426   -0.014090
   -1    0    1    8    4    0.049665    0.017152
   -1    0    1    9    4    0.003332    0.035285
   -1    0    1   10    4    0.038669   -0.065654
   -1    0    1    1    5   -0.091216    0.039544
   -1    0    1    2    5    0.005854    0.010577
   -1    0    1    3    5   -0.001539   -0.060672
   -1    0    1    4    5   -0.022908   -0.020801
   -1    0    1    5    5   -0.015479   -0.008891
   -1    0    1    6    5   -0.020897   -0.008891
   -1    0    1    7    5   -0.031033   -0.017918
   -1    0    1    8    5   -0.008115    0.050044
   -1    0    1    9    5    0.027353    0.023072
   -1    0    1   10    5    0.024344   -0.063003
   -1    0    1    1    6   -0.005854    0.010577
   -1    0    1    2    6   -0.091216   -0.039544
   -1    0    1    3    6    0.022908   -0.020801
   -1    0    1    4    6   -0.001539    0.060672
   -1    0    1    5    6    0.020897   -0.008891
   -1    0    1    6    6   -0.015479    0.008891
   -1    0    1    7    6    0.008115    0.050044
   -1    0    1    8    6   -0.031033    0.017918
   -1    0    1    9    6   -0.024344   -0.063003
   -1    0    1   10    6    0.027353   -0.023072
   -1    0    1    1    7    0.048373    0.057924
   -1    0    1    2    7   -0.040624   -0.018815
   -1    0    1    3    7    0.049665   -0.014090
   -1    0    1    4    7    0.029426   -0.017152
   -1    0    1    5    7   -0.031033    0.050044
   -1    0    1    6    7   -0.008115   -0.017918
   -1    0    1    7    7   -0.078451    0.002134
   -1    0    1    8    7    0.022608    0.002134
   -1    0    1    9    7   -0.023906    0.022686
   -1    0    1   10    7    0.004649    0.017603
   -1    0    1    1    8    0.040624   -0.018815
   -1    0    1    2    8    0.048373   -0.057924
   -1    0    1    3    8   -0.029426   -0.017152
   -1    0    1    4    8    0.049665    0.014090
   -1    0    1    5    8    0.008115   -0.017918
   -1    0    1    6    8   -0.031033   -0.050044
   -1    0    1    7    8   -0.022608    0.002134
   -1    0    1    8    8   -0.078451   -0.002134
   -1    0    1    9    8   -0.004649    0.017603
   -1    0    1   10    8   -0.023906   -0.022686
   -1    0    1    1    9    0.001986   -0.016085
   -1    0    1    2    9   -0.023546    0.024256
   -1    0    1    3    9    0.038669    0.035285
   -1    0    1    4    9   -0.003332    0.065654
   -1    0    1    5    9    0.027353   -0.063003
   -1    0    1    6    9    0.024344    0.023072
   -1    0    1    7    9   -0.023906    0.017603
   -1    0    1    8    9    0.004649    0.022686
   -1    0    1    9    9    0.171640    0.005567
   -1    0    1   10    9   -0.102374    0.005567
   -1    0    1    1   10    0.023546    0.024256
   -1    0    1    2   10    0.001986    0.016085
   -1    0    1    3   10    0.003332    0.065654
   -1    0    1    4   10    0.038669   -0.035285
   -1    0    1    5   10   -0.024344    0.023072
   -1    0    1    6   10    0.027353    0.063003
   -1    0    1    7   10   -0.004649    0.022686
   -1    0    1    8   10   -0.023906   -0.017603
   -1    0    1    9   10    0.102374    0.005567
   -1    0    1   10   10    0.171640   -0.005567
   -1    0    2    1    1    0.151609   -0.011663
   -1    0    2    2    1    0.000000    0.011663
   -1    0    2    3    1    0.065512    0.031754
   -1    0    2    4    1    0.000000   -0.031754
   -1    0    2    5    1   -0.044239   -0.024426
   -1    0    2    6    1   -0.000000    0.024426
   -1    0    2    7    1   -0.062997   -0.055864
   -1    0    2    8    1    0.000000    0.055864
   -1    0    2    9    1    0.083794   -0.013862
   -1    0    2   10    1   -0.000000    0.013862
   -1    0    2    1    2   -0.000000    0.011663
   -1    0    2    2    2    0.151609    0.011663
   -1    0    2    3    2    0.000000   -0.031754
   -1    0    2    4    2    0.065512   -0.031754
   -1    0    2    5    2    0.000000    0.024426
   -1    0    2    6    2   -0.044239    0.024426
   -1    0    2    7    2   -0.000000    0.055864
   -1    0    2    8    2   -0.062997    0.055864
   -1    0    2    9    2    0.000000    0.013862
   -1    0    2   10    2    0.083794    0.013862
   -1    0    2    1    3    0.175450    0.011661
   -1    0    2    2    3   -0.000000   -0.011661
   -1    0    2    3    3   -0.006727   -0.021266
   -1    0    2    4    3    0.000000    0.021266
   -1    0    2    5    3    0.168002   -0.050373
   -1    0    2    6    3   -0.000000    0.050373
   -1    0    2    7    3    0.073079    0.025667
   -1    0    2    8    3    0.000000   -0.025667
   -1    0    2    9    3   -0.073519    0.008553
   -1    0    2   10    3   -0.000000   -0.008553
   -1    0    2    1    4    0.000000   -0.011661
   -1    0    2    2    4    0.175450   -0.011661
   -1    0    2    3    4   -0.000000    0.021266
   -1    0    2    4    4   -0.006727    0.021266
   -1    0    2    5    4    0.000000    0.050373
   -1    0    2    6    4    0.168002    0.050373
   -1    0    2    7    4    0.000000   -0.025667
   -1    0    2    8    4    0.073079   -0.025667
   -1    0    2    9    4    0.000000   -0.008553
   -1    0    2   10    4   -0.073519   -0.008553
   -1    0    2    1    5    0.042364   -0.002483
   -1    0    2    2    5    0.000000    0.002483
   -1    0    2    3    5    0.137632    0.024158
   -1    0    2    4    5    0.000000   -0.024158
   -1    0    2    5    5   -0.010275   -0.010519
   -1    0    2    6    5   -0.000000    0.010519
   -1    0    2    7    5    0.032526    0.011849
   -1    0    2    8    5   -0.000000   -0.011849
   -1    0    2    9    5    0.056638   -0.024022
   -1    0    2   10    5    0.000000    0.024022
   -1    0    2    1    6   -0.000000    0.002483
   -1    0    2    2    6    0.042364    0.002483
   -1    0    2    3    6    0.000000   -0.024158
   -1    0    2    4    6    0.137632   -0.024158
   -1    0    2    5    6    0.000000    0.010519
   -1    0    2    6    6   -0.010275    0.010519
   -1    0    2    7    6    0.000000   -0.011849
   -1    0    2    8    6    0.032526   -0.011849
   -1    0    2    9    6    0.000000    0.024022
   -1    0    2   10    6    0.056638    0.024022
   -1    0    2    1    7    0.081700    0.030101
   -1    0    2    2    7   -0.000000   -0.030101
   -1    0    2    3    7   -0.051407   -0.040985
   -1    0    2    4    7    0.000000    0.040985
   -1    0    2    5    7    0.118696    0.007346
   -1    0    2    6    7   -0.000000   -0.007346
   -1    0    2    7    7    0.031269   -0.027249
   -1    0    2    8    7    0.000000    0.027249
   -1    0    2    9    7   -0.037205   -0.050993
   -1    0    2   10    7   -0.000000    0.050993
   -1    0    2    1    8    0.000000   -0.030101
   -1    0    2    2    8    0.081700   -0.030101
   -1    0    2    3    8   -0.000000    0.040985
   -1    0    2    4    8   -0.051407    0.040985
   -1    0    2    5    8    0.000000   -0.007346
   -1    0    2    6    8    0.118696   -0.007346
   -1    0    2    7    8    0.000000    0.027249
   -1    0    2    8    8    0.031269    0.027249
   -1    0    2    9    8    0.000000    0.050993
   -1    0    2   10    8   -0.037205    0.050993
   -1    0    2    1    9    0.099790    0.015539
   -1    0    2    2    9   -0.000000   -0.015539
   -1    0    2    3    9   -0.030738    0.009062
   -1    0    2    4    9    0.000000   -0.009062
   -1    0    2    5    9    0.087744    0.002398
   -1    0    2    6    9   -0.000000   -0.002398
   -1    0    2    7    9   -0.005472    0.080815
   -1    0    2    8    9   -0.000000   -0.080815
   -1    0    2    9    9   -0.117426    0.012634
   -1    0    2   10    9   -0.000000   -0.012634
   -1    0    2    1   10   -0.000000   -0.015539
   -1    0    2    2   10    0.099790   -0.015539
   -1    0    2    3   10   -0.000000   -0.009062
   -1    0    2    4   10   -0.030738   -0.009062
   -1    0    2    5   10   -0.000000   -0.002398
   -1    0    2    6   10    0.087744   -0.002398
   -1    0    2    7   10    0.000000   -0.080815
   -1    0    2    8   10   -0.005472   -0.080815
   -1    0    2    9   10    0.000000   -0.012634
   -1    0    2   10   10   -0.117426   -0.012634
   -1    1   -1    1    1    0.094704    0.008149
   -1    1   -1    2    1    0.000000   -0.008149
   -1    1   -1    3    1    0.361649    0.072048
   -1    1   -1    4    1    0.000000   -0.072048
   -1    1   -1    5    1    0.075172   -0.025880
   -1    1   -1    6    1   -0.000000    0.025880
   -1    1   -1    7    1    0.052684    0.052501
   -1    1   -1    8    1    0.000000   -0.052501
   -1    1   -1    9    1    0.144979    0.077398
   -1    1   -1   10    1   -0.000000   -0.077398
   -1    1   -1    1    2    0.000000   -0.008149
   -1    1   -1    2    2    0.094704   -0.008149
   -1    1   -1    3    2   -0.000000   -0.072048
   -1    1   -1    4    2    0.361649   -0.072048
   -1    1   -1    5    2    0.000000    0.025880
   -1    1   -1    6    2    0.075172    0.025880
   -1    1   -1    7    2   -0.000000   -0.052501
   -1    1   -1    8    2    0.052684   -0.052501
   -1    1   -1    9    2   -0.000000   -0.077398
   -1    1   -1   10    2    0.144979   -0.077398
   -1    1   -1    1    3   -0.105164   -0.008691
   -1    1   -1    2    3    0.000000    0.008691
   -1    1   -1    3    3    0.039396   -0.015588
   -1    1   -1    4    3   -0.000000    0.015588
   -1    1   -1    5    3    0.060507   -0.015470
   -1    1   -1    6    3   -0.000000    0.015470
   -1    1   -1    7    3   -0.010654   -0.000740
   -1    1   -1    8    3   -0.000000    0.000740
   -1    1   -1    9    3    0.116120   -0.003998
   -1    1   -1   10    3    0.000000    0.003998
   -1    1   -1    1    4    0.000000    0.008691
   -1    1   -1    2    4   -0.105164    0.008691
   -1    1   -1    3    4    0.000000    0.015588
   -1    1   -1    4    4    0.039396    0.015588
   -1    1   -1    5    4    0.000000    0.015470
   -1    1   -1    6    4    0.060507    0.015470
   -1    1   -1    7    4    0.000000    0.000740
   -1    1   -1    8    4   -0.010654    0.000740
   -1    1   -1    9    4    0.000000    0.003998
   -1    1   -1   10    4    0.116120    0.003998
   -1    1   -1    1    5    0.108906   -0.023338
   -1    1   -1    2    5    0.000000    0.023338
   -1    1   -1    3    5    0.051706   -0.045746
   -1    1   -1    4    5    0.000000    0.045746
   -1    1   -1    5    5    0.045324    0.011933
   -1    1   -1    6    5   -0.000000   -0.011933
   -1    1   -1    7    5   -0.267838    0.003550
   -1    1   -1    8    5    0.000000   -0.003550
   -1    1   -1    9    5   -0.099597    0.021778
   -1    1   -1   10    5    0.000000   -0.021778
   -1    1   -1    1    6   -0.000000    0.023338
   -1    1   -1    2    6    0.108906    0.023338
   -1    1   -1    3    6    0.000000    0.045746
   -1    1   -1    4    6    0.051706    0.045746
   -1    1   -1    5    6    0.000000   -0.011933
   -1    1   -1    6    6    0.045324   -0.011933
   -1    1   -1    7    6   -0.000000   -0.003550
   -1    1   -1    8    6   -0.267838   -0.003550
   -1    1   -1    9    6   -0.000000   -0.021778
   -1    1   -1   10    6   -0.099597   -0.021778
   -1    1   -1    1    7   -0.179790   -0.095122
   -1    1   -1    2    7   -0.000000    0.095122
   -1    1   -1    3    7    0.032608   -0.008796
   -1    1   -1    4    7    0.000000    0.008796
   -1    1   -1    5    7   -0.041991   -0.002257
   -1    1   -1    6    7   -0.000000    0.002257
   -1    1   -1    7    7   -0.025325   -0.018574
   -1    1   -1    8    7    0.000000    0.018574
   -1    1   -1    9    7    0.026206    0.001303
   -1    1   -1   10    7    0.000000   -0.001303
   -1    1   -1    1    8   -0.000000    0.095122
   -1    1   -1    2    8   -0.179790    0.095122
   -1    1   -1    3    8    0.000000    0.008796
   -1    1   -1    4    8    0.032608    0.008796
   -1    1   -1    5    8    0.000000    0.002257
   -1    1   -1    6    8   -0.041991    0.002257
   -1    1   -1    7    8   -0.000000    0.018574
   -1    1   -1    8    8   -0.025325    0.018574
   -1    1   -1    9    8   -0.000000   -0.001303
   -1    1   -1   10    8    0.026206   -0.001303
   -1    1   -1    1    9    0.064609    0.011897
   -1    1   -1    2    9    0.000000   -0.011897
   -1    1   -1    3    9   -0.108247    0.065005
   -1    1   -1    4    9    0.000000   -0.065005
   -1    1   -1    5    9   -0.167849   -0.002971
   -1    1   -1    6    9   -0.000000    0.002971
   -1    1   -1    7    9    0.011297    0.146713
   -1    1   -1    8    9    0.000000   -0.146713
   -1    1   -1    9    9   -0.176559    0.032024
   -1    1   -1   10    9   -0.000000   -0.032024
   -1    1   -1    1   10   -0.000000   -0.011897
   -1    1   -1    2   10    0.064609   -0.011897
   -1    1   -1    3   10   -0.000000   -0.065005
   -1    1   -1    4   10   -0.108247   -0.065005
   -1    1   -1    5   10    0.000000    0.002971
   -1    1   -1    6   10   -0.167849    0.002971
   -1    1   -1    7   10    0.000000   -0.146713
   -1    1   -1    8   10    0.011297   -0.146713
   -1    1   -1    9   10   -0.000000   -0.032024
   -1    1   -1   10   10   -0.176559   -0.032024
   -1    1    0    1    1   -0.114139   -0.023308
   -1    1    0    2    1   -0.023243    0.020633
   -1    1    0    3    1   -0.024413   -0.044797
   -1    1    0    4    1    0.057222    0.013703
   -1    1    0    5    1   -0.011240    0.015449
   -1    1    0    6    1   -0.005206   -0.003474
   -1    1    0    7    1   -0.110936    0.006606
   -1    1    0    8    1    0.022401   -0.084172
   -1    1    0    9    1    0.044925    0.061517
   -1    1    0   10    1    0.084427    0.005161
   -1    1    0    1    2    0.023243    0.020633
   -1    1    0    2    2   -0.114139    0.023308
   -1    1    0    3    2   -0.057222    0.013703
   -1    1    0    4    2   -0.024413    0.044797
   -1    1    0    5    2    0.005206   -0.003474
   -1    1    0    6    2   -0.011240   -0.015449
   -1    1    0    7    2   -0.022401   -0.084172
   -1    1    0    8    2   -0.110936   -0.006606
   -1    1    0    9    2   -0.084427    0.005161
   -1    1    0   10    2    0.044925   -0.061517
   -1    1    0    1    3   -0.097941    0.063368
   -1    1    0    2    3    0.045519   -0.003791
   -1    1    0    3    3    0.116491   -0.019107
   -1    1    0    4    3   -0.036928   -0.031351
   -1    1    0    5    3    0.008513    0.031013
   -1    1    0    6    3    0.008644   -0.006654
   -1    1    0    7    3    0.003966    0.097242
   -1    1    0    8    3    0.005405    0.033150
   -1    1    0    9    3    0.020354    0.026168
   -1    1    0   10    3    0.004773    0.032102
   -1    1    0    1    4   -0.045519   -0.003791
   -1    1    0    2    4   -0.097941   -0.063368
   -1    1    0    3    4    0.036928   -0.031351
   -1    1    0    4    4    0.116491    0.019107
   -1    1    0    5    4   -0.008644   -0.006654
   -1    1    0    6    4    0.008513   -0.031013
   -1    1    0    7    4   -0.005405    0.033150
   -1    1    0    8    4    0.003966   -0.097242
   -1    1    0    9    4   -0.004773    0.032102
   -1    1    0   10    4    0.020354   -0.026168
   -1    1    0    1    5    0.041707   -0.047962
   -1    1    0    2    5   -0.021824    0.055633
   -1    1    0    3    5   -0.058940    0.059977
   -1    1    0    4    5    0.010229    0.004214
   -1    1    0    5    5    0.064488   -0.033332
   -1    1    0    6    5   -0.001997    0.010911
   -1    1    0    7    5   -0.034177   -0.005519
   -1    1    0    8    5    0.015941    0.002698
   -1    1    0    9    5   -0.023921   -0.029009
   -1    1    0   10    5   -0.017814   -0.006756
   -1    1    0    1    6    0.021824    0.055633
   -1    1    0    2    6    0.041707    0.047962
   -1    1    0    3    6   -0.010229    0.004214
   -1    1    0    4    6   -0.058940   -0.059977
   -1    1    0    5    6    0.001997    0.010911
   -1    1    0    6    6    0.064488    0.033332
   -1    1    0    7    6   -0.015941    0.002698
   -1    1    0    8    6   -0.034177    0.005519
   -1    1    0    9    6    0.017814   -0.006756
   -1    1    0   10    6   -0.023921    0.029009
   -1    1    0    1    7   -0.087124   -0.001725
   -1    1    0    2    7    0.036884   -0.008348
   -1    1    0    3    7   -0.010058   -0.018022
   -1    1    0    4    7   -0.106399   -0.013679
   -1    1    0    5    7   -0.051887    0.027215
   -1    1    0    6    7    0.038812   -0.015027
   -1    1    0    7    7   -0.197052   -0.005430
   -1    1    0    8    7    0.020796   -0.036281
   -1    1    0    9    7    0.007225   -0.112757
   -1    1    0   10    7    0.026788    0.027626
   -1    1    0    1    8   -0.036885   -0.008348
   -1    1    0    2    8   -0.087124    0.001725
   -1    1    0    3    8    0.106399   -0.013679
   -1    1    0    4    8   -0.010058    0.018022
   -1    1    0    5    8   -0.038812   -0.015027
   -1    1    0    6    8   -0.051887   -0.027215
   -1    1    0    7    8   -0.020796   -0.036281
   -1    1    0    8    8   -0.197052    0.005430
   -1    1    0    9    8   -0.026788    0.027626
   -1    1    0   10    8    0.007225    0.112757
   -1    1    0    1    9   -0.200196   -0.015150
   -1    1    0    2    9    0.079598    0.007693
   -1    1    0    3    9   -0.167332    0.039214
   -1    1    0    4    9   -0.062216    0.001911
   -1    1    0    5    9    0.049252    0.028421
   -1    1    0    6    9   -0.019216    0.007781
   -1    1    0    7    9   -0.035117   -0.024839
   -1    1    0    8    9    0.018521   -0.016187
   -1    1    0    9    9   -0.010995    0.024514
   -1    1    0   10    9    0.101695   -0.008681
   -1    1    0    1   10   -0.079598    0.007693
   -1    1    0    2   10   -0.200196    0.015150
   -1    1    0    3   10    0.062216    0.001911
   -1    1    0    4   10   -0.167332   -0.039214
   -1    1    0    5   10    0.019216    0.007781
   -1    1    0    6   10    0.049252   -0.028421
   -1    1    0    7   10   -0.018521   -0.016187
   -1    1    0    8   10   -0.035117    0.024839
   -1    1    0    9   10   -0.101695   -0.008681
   -1    1    0   10   10   -0.010995   -0.024514
   -1    1    1    1    1   -0.006322   -0.027763
   -1    1    1    2    1    0.003877   -0.066938
   -1    1    1    3    1   -0.122719    0.059240
   -1    1    1    4    1    0.007689    0.072685
   -1    1    1    5    1   -0.040911   -0.048653
   -1    1    1    6    1   -0.015694   -0.033579
   -1    1    1    7    1    0.157053   -0.013215
   -1    1    1    8    1   -0.012616    0.053408
   -1    1    1    9    1    0.033534    0.026407
   -1    1    1   10    1    0.055072    0.021297
   -1    1    1    1    2   -0.003877   -0.066938
   -1    1    1    2    2   -0.006322    0.027763
   -1    1    1    3    2   -0.007689    0.072685
   -1    1    1    4    2   -0.122719   -0.059240
   -1    1    1    5    2    0.015694   -0.033579
   -1    1    1    6    2   -0.040911    0.048653
   -1    1    1    7    2    0.012616    0.053408
   -1    1    1    8    2    0.157053    0.013215
   -1    1    1    9    2   -0.055072    0.021297
   -1    1    1   10    2    0.033534   -0.026407
   -1    1    1    1    3    0.010192    0.017879
   -1    1    1    2    3    0.063009    0.003240
   -1    1    1    3    3   -0.031143    0.008879
   -1    1    1    4    3    0.053847    0.025771
   -1    1    1    5    3    0.027971    0.007396
   -1    1    1    6    3    0.015477   -0.030413
   -1    1    1    7    3    0.057086   -0.015273
   -1    1    1    8    3   -0.045120    0.007150
   -1    1    1    9    3   -0.100810    0.059610
   -1    1    1   10    3    0.009707   -0.029734
   -1    1    1    1    4   -0.063009    0.003240
   -1    1    1    2    4    0.010192   -0.017879
   -1    1    1    3    4   -0.053847    0.025771
   -1    1    1    4    4   -0.031143   -0.008879
   -1    1    1    5    4   -0.015477   -0.030413
   -1    1    1    6    4    0.027971   -0.007396
   -1    1    1    7    4    0.045120    0.007150
   -1    1    1    8    4    0.057086    0.015273
   -1    1    1    9    4   -0.009707   -0.029734
   -1    1    1   10    4   -0.100810   -0.059610
   -1    1    1    1    5    0.062550   -0.011915
   -1    1    1    2    5    0.008208   -0.056319
   -1    1    1    3    5    0.059719    0.046179
   -1    1    1    4    5   -0.023943    0.142314
   -1    1    1    5    5    0.022601   -0.026735
   -1    1    1    6    5    0.003408   -0.024163
   -1    1    1    7    5   -0.036586   -0.007125
   -1    1    1    8    5    0.048707    0.018333
   -1    1    1    9    5   -0.033040    0.077203
   -1    1    1   10    5    0.014351   -0.010800
   -1    1    1    1    6   -0.008208   -0.056319
   -1    1    1    2    6    0.062550    0.011915
   -1    1    1    3    6    0.023943    0.142314
   -1    1    1    4    6    0.059719   -0.046179
   -1    1    1    5    6   -0.003408   -0.024163
   -1    1    1    6    6    0.022601    0.026735
   -1    1    1    7    6   -0.048707    0.018333
   -1    1    1    8    6   -0.036586    0.007125
   -1    1    1    9    6   -0.014351   -0.010800
   -1    1    1   10    6   -0.033040   -0.077203
   -1    1    1    1    7   -0.122363   -0.094906
   -1    1    1    2    7    0.032220   -0.083495
   -1    1    1    3    7    0.037493    0.001942
   -1    1    1    4    7   -0.030535   -0.009648
   -1    1    1    5    7    0.219298    0.026506
   -1    1    1    6    7    0.008742    0.002376
   -1    1    1    7    7   -0.057913    0.009066
   -1    1    1    8    7    0.013859   -0.024406
   -1    1    1    9    7    0.018305    0.056450
   -1    1    1   10    7    0.056268   -0.086364
   -1    1    1    1    8   -0.032220   -0.083495
   -1    1    1    2    8   -0.122363    0.094906
   -1    1    1    3    8    0.030535   -0.009648
   -1    1    1    4    8    0.037493   -0.001942
   -1    1    1    5    8   -0.008742    0.002376
   -1    1    1    6    8    0.219298   -0.026506
   -1    1    1    7    8   -0.013859   -0.024406
   -1    1    1    8    8   -0.057913   -0.009066
   -1    1    1    9    8   -0.056268   -0.086364
   -1    1    1   10    8    0.018305   -0.056450
   -1    1    1    1    9   -0.073727   -0.009122
   -1    1    1    2    9    0.082269   -0.002451
   -1    1    1    3    9    0.054979   -0.031861
   -1    1    1    4    9   -0.030222    0.050643
   -1    1    1    5    9   -0.084034   -0.004647
   -1    1    1    6    9    0.001889    0.007359
   -1    1    1    7    9    0.035879    0.000905
   -1    1    1    8    9   -0.027507    0.111110
   -1    1    1    9    9    0.050315   -0.003129
   -1    1    1   10    9    0.015446    0.022089
   -1    1    1    1   10   -0.082269   -0.002451
   -1    1    1    2   10   -0.073727    0.009122
   -1    1    1    3   10    0.030222    0.050643
   -1    1    1    4   10    0.054979    0.031861
   -1    1    1    5   10   -0.001889    0.007359
   -1    1    1    6   10   -0.084034    0.004647
   -1    1    1    7   10    0.027507    0.111110
   -1    1    1    8   10    0.035879   -0.000905
   -1    1    1    9   10   -0.015446    0.022089
   -1    1    1   10   10    0.050315    0.003129
   -1    2   -1    1    1   -0.011618   -0.041726
   -1    2   -1    2    1   -0.000000    0.041726
   -1    2   -1    3    1    0.081371   -0.012828
   -1    2   -1    4    1    0.000000    0.012828
   -1    2   -1    5    1    0.112347   -0.001120
   -1    2   -1    6    1   -0.000000    0.001120
   -1    2   -1    7    1    0.148587   -0.015771
   -1    2   -1    8    1    0.000000    0.015771
   -1    2   -1    9    1    0.087418    0.008204
   -1    2   -1   10    1   -0.000000   -0.008204
   -1    2   -1    1    2   -0.000000    0.041726
   -1    2   -1    2    2   -0.011618    0.041726
   -1    2   -1    3    2    0.000000    0.012828
   -1    2   -1    4    2    0.081371    0.012828
   -1    2   -1    5    2    0.000000    0.001120
   -1    2   -1    6    2    0.112347    0.001120
   -1    2   -1    7    2    0.000000    0.015771
   -1    2   -1    8    2    0.148587    0.015771
   -1    2   -1    9    2   -0.000000   -0.008204
   -1    2   -1   10    2    0.087418   -0.008204
   -1    2   -1    1    3    0.150335   -0.007764
   -1    2   -1    2    3   -0.000000    0.007764
   -1    2   -1    3    3   -0.071384   -0.011778
   -1    2   -1    4    3    0.000000    0.011778
   -1    2   -1    5    3   -0.000897   -0.001008
   -1    2   -1    6    3   -0.000000    0.001008
   -1    2   -1    7    3   -0.025369   -0.028181
   -1    2   -1    8    3    0.000000    0.028181
   -1    2   -1    9    3    0.196101   -0.026695
   -1    2   -1   10    3    0.000000    0.026695
   -1    2   -1    1    4    0.000000    0.007764
   -1    2   -1    2    4    0.150335    0.007764
   -1    2   -1    3    4    0.000000    0.011778
   -1    2   -1    4    4   -0.071384    0.011778
   -1    2   -1    5    4    0.000000    0.001008
   -1    2   -1    6    4   -0.000897    0.001008
   -1    2   -1    7    4   -0.000000    0.028181
   -1    2   -1    8    4   -0.025369    0.028181
   -1    2   -1    9    4    0.000000    0.026695
   -1    2   -1   10    4    0.196101    0.026695
   -1    2   -1    1    5    0.005776   -0.054536
   -1    2   -1    2    5    0.000000    0.054536
   -1    2   -1    3    5   -0.061941    0.002648
   -1    2   -1    4    5    0.000000   -0.002648
   -1    2   -1    5    5   -0.021465   -0.004375
   -1    2   -1    6    5    0.000000    0.004375
   -1    2   -1    7    5    0.151373   -0.014445
   -1    2   -1    8    5   -0.000000    0.014445
   -1    2   -1    9    5   -0.071223   -0.003865
   -1    2   -1   10    5   -0.000000    0.003865
   -1    2   -1    1    6   -0.000000    0.054536
   -1    2   -1    2    6    0.005776    0.054536
   -1    2   -1    3    6   -0.000000   -0.002648
   -1    2   -1    4    6   -0.061941   -0.002648
   -1    2   -1    5    6   -0.000000    0.004375
   -1    2   -1    6    6   -0.021465    0.004375
   -1    2   -1    7    6   -0.000000    0.014445
   -1    2   -1    8    6    0.151373    0.014445
   -1    2   -1    9    6   -0.000000    0.003865
   -1    2   -1   10    6   -0.071223    0.003865
   -1    2   -1    1    7    0.207866   -0.014344
   -1    2   -1    2    7    0.000000    0.014344
   -1    2   -1    3    7    0.078038   -0.008813
   -1    2   -1    4    7   -0.000000    0.008813
   -1    2   -1    5    7    0.052609   -0.036741
   -1    2   -1    6    7   -0.000000    0.036741
   -1    2   -1    7    7    0.037914    0.006994
   -1    2   -1    8    7   -0.000000   -0.006994
   -1    2   -1    9    7   -0.002494    0.054060
   -1    2   -1   10    7   -0.000000   -0.054060
   -1    2   -1    1    8    0.000000    0.014344
   -1    2   -1    2    8    0.207866    0.014344
   -1    2   -1    3    8    0.000000    0.008813
   -1    2   -1    4    8    0.078038    0.008813
   -1    2   -1    5    8   -0.000000    0.036741
   -1    2   -1    6    8    0.052609    0.036741
   -1    2   -1    7    8   -0.000000   -0.006994
   -1    2   -1    8    8    0.037914   -0.006994
   -1    2   -1    9    8    0.000000   -0.054060
   -1    2   -1   10    8   -0.002494   -0.054060
   -1    2   -1    1    9    0.188010    0.017922
   -1    2   -1    2    9   -0.000000   -0.017922
   -1    2   -1    3    9   -0.049796    0.006707
   -1    2   -1    4    9    0.000000   -0.006707
   -1    2   -1    5    9   -0.078470   -0.034339
   -1    2   -1    6    9   -0.000000    0.034339
   -1    2   -1    7    9   -0.177556    0.039630
   -1    2   -1    8    9    0.000000   -0.039630
   -1    2   -1    9    9    0.048637    0.038991
   -1    2   -1   10    9   -0.000000   -0.038991
   -1    2   -1    1   10   -0.000000   -0.017922
   -1    2   -1    2   10    0.188010   -0.017922
   -1    2   -1    3   10    0.000000   -0.006707
   -1    2   -1    4   10   -0.049796   -0.006707
   -1    2   -1    5   10   -0.000000    0.034339
   -1    2   -1    6   10   -0.078470    0.034339
   -1    2   -1    7   10   -0.000000   -0.039630
   -1    2   -1    8   10   -0.177556   -0.039630
   -1    2   -1    9   10   -0.000000   -0.038991
   -1    2   -1   10   10    0.048637   -0.038991
   -1    2    0    1    1   -0.056706   -0.063159
   -1    2    0    2    1    0.016312    0.011449
   -1    2    0    3    1    0.105286   -0.078356
   -1    2    0    4    1    0.039688   -0.048213
   -1    2    0    5    1   -0.049945    0.051947
   -1    2    0    6    1    0.024979   -0.011384
   -1    2    0    7    1    0.074989   -0.009752
   -1    2    0    8    1    0.003283    0.004890
   -1    2    0    9    1    0.025002    0.023075
   -1    2    0   10    1   -0.023793    0.022196
   -1    2    0    1    2   -0.016312    0.011449
   -1    2    0    2    2   -0.056706    0.063159
   -1    2    0    3    2   -0.039688   -0.048213
   -1    2    0    4    2    0.105286    0.078356
   -1    2    0    5    2   -0.024979   -0.011384
   -1    2    0    6    2   -0.049945   -0.051947
   -1    2    0    7    2   -0.003283    0.004890
   -1    2    0    8    2    0.074989    0.009752
   -1    2    0    9    2    0.023793    0.022196
   -1    2    0   10    2    0.025002   -0.023075
   -1    2    0    1    3   -0.121733    0.024437
   -1    2    0    2    3   -0.066783   -0.039640
   -1    2    0    3    3    0.011279    0.020131
   -1    2    0    4    3    0.076382    0.024633
   -1    2    0    5    3   -0.039840    0.044955
   -1    2    0    6    3   -0.011644   -0.008871
   -1    2    0    7    3   -0.041362    0.005529
   -1    2    0    8    3    0.028787   -0.024014
   -1    2    0    9    3    0.033068   -0.014615
   -1    2    0   10    3    0.052524   -0.009403
   -1    2    0    1    4    0.066783   -0.039640
   -1    2    0    2    4   -0.121733   -0.024437
   -1    2    0    3    4   -0.076382    0.024633
   -1    2    0    4    4    0.011279   -0.020131
   -1    2    0    5    4    0.011644   -0.008871
   -1    2    0    6    4   -0.039840   -0.044955
   -1    2    0    7    4   -0.028787   -0.024014
   -1    2    0    8    4   -0.041362   -0.005529
   -1    2    0    9    4   -0.052524   -0.009403
   -1    2    0   10    4    0.033068    0.014615
   -1    2    0    1    5    0.055477   -0.076493
   -1    2    0    2    5   -0.023639   -0.014093
   -1    2    0    3    5   -0.024064    0.010855
   -1    2    0    4    5   -0.006479    0.058710
   -1    2    0    5    5   -0.000006   -0.016759
   -1    2    0    6    5    0.000017    0.011540
   -1    2    0    7    5    0.187865   -0.045196
   -1    2    0    8    5   -0.001279   -0.008985
   -1    2    0    9    5    0.057536   -0.043534
   -1    2    0   10    5    0.032332    0.001352
   -1    2    0    1    6    0.023639   -0.014093
   -1    2    0    2    6    0.055477    0.076493
   -1    2    0    3    6    0.006479    0.058710
   -1    2    0    4    6   -0.024064   -0.010855
   -1    2    0    5    6   -0.000017    0.011540
   -1    2    0    6    6   -0.000006    0.016759
   -1    2    0    7    6    0.001279   -0.008985
   -1    2    0    8    6    0.187865    0.045196
   -1    2    0    9    6   -0.032332    0.001352
   -1    2    0   10    6    0.057536    0.043534
   -1    2    0    1    7    0.064155   -0.013374
   -1    2    0    2    7   -0.034747    0.091814
   -1    2    0    3    7    0.006357    0.013339
   -1    2    0    4    7    0.012745    0.025245
   -1    2    0    5    7    0.046931    0.012097
   -1    2    0    6    7   -0.002539   -0.012214
   -1    2    0    7    7    0.027859    0.021776
   -1    2    0    8    7    0.003820   -0.047824
   -1    2    0    9    7    0.066266   -0.064167
   -1    2    0   10    7   -0.029996    0.052629
   -1    2    0    1    8    0.034747    0.091814
   -1    2    0    2    8    0.064155    0.013374
   -1    2    0    3    8   -0.012745    0.025245
   -1    2    0    4    8    0.006357   -0.013339
   -1    2    0    5    8    0.002539   -0.012214
   -1    2    0    6    8    0.046931   -0.012097
   -1    2    0    7    8   -0.003820   -0.047824
   -1    2    0    8    8    0.027859   -0.021776
   -1    2    0    9    8    0.029996    0.052629
   -1    2    0   10    8    0.066266    0.064167
   -1    2    0    1    9    0.057828   -0.008527
   -1    2    0    2    9   -0.015473    0.050756
   -1    2    0    3    9    0.037978   -0.003387
   -1    2    0    4    9    0.016207   -0.016931
   -1    2    0    5    9    0.020240    0.088410
   -1    2    0    6    9    0.005082   -0.011660
   -1    2    0    7    9   -0.016315   -0.000783
   -1    2    0    8    9    0.036142   -0.018738
   -1    2    0    9    9    0.066025    0.035159
   -1    2    0   10    9   -0.081994   -0.020594
   -1    2    0    1   10    0.015473    0.050756
   -1    2    0    2   10    0.057828    0.008527
   -1    2    0    3   10   -0.016207   -0.016931
   -1    2    0    4   10    0.037978    0.003387
   -1    2    0    5   10   -0.005082   -0.011660
   -1    2    0    6   10    0.020240   -0.088410
   -1    2    0    7   10   -0.036142   -0.018738
   -1    2    0    8   10   -0.016315    0.000783
   -1    2    0    9   10    0.081994   -0.020594
   -1    2    0   10   10    0.066025   -0.035159
    0   -2    1    1    1   -0.056706    0.011449
    0   -2    1    2    1    0.016312   -0.063159
    0   -2    1    3    1   -0.121733   -0.039640
    0   -2    1    4    1   -0.066783    0.024437
    0   -2    1    5    1    0.055477   -0.014093
    0   -2    1    6    1   -0.023639   -0.076493
    0   -2    1    7    1    0.064155    0.091814
    0   -2    1    8    1   -0.034747   -0.013374
    0   -2    1    9    1    0.057828    0.050756
    0   -2    1   10    1   -0.015473   -0.008527
    0   -2    1    1    2   -0.016312   -0.063159
    0   -2    1    2    2   -0.056706   -0.011449
    0   -2    1    3    2    0.066783    0.024437
    0   -2    1    4    2   -0.121733    0.039640
    0   -2    1    5    2    0.023639   -0.076493
    0   -2    1    6    2    0.055477    0.014093
    0   -2    1    7    2    0.034747   -0.013374
    0   -2    1    8    2    0.064155   -0.091814
    0   -2    1    9    2    0.015473   -0.008527
    0   -2    1   10    2    0.057828   -0.050756
    0   -2    1    1    3    0.105286   -0.048213
    0   -2    1    2    3    0.039688   -0.078356
    0   -2    1    3    3    0.011279    0.024633
    0   -2    1    4    3    0.076382    0.020131
    0   -2    1    5    3   -0.024064    0.058710
    0   -2    1    6    3   -0.006479    0.010855
    0   -2    1    7    3    0.006357    0.025245
    0   -2    1    8    3    0.012745    0.013339
    0   -2    1    9    3    0.037978   -0.016931
    0   -2    1   10    3    0.016207   -0.003387
    0   -2    1    1    4   -0.039688   -0.078356
    0   -2    1    2    4    0.105286    0.048213
    0   -2    1    3    4   -0.076382    0.020131
    0   -2    1    4    4    0.011279   -0.024633
    0   -2    1    5    4    0.006479    0.010855
    0   -2    1    6    4   -0.024064   -0.058710
    0   -2    1    7    4   -0.012745    0.013339
    0   -2    1    8    4    0.006357   -0.025245
    0   -2    1    9    4   -0.016207   -0.003387
    0   -2    1   10    4    0.037978    0.016931
    0   -2    1    1    5   -0.049945   -0.011384
    0   -2    1    2    5    0.024979    0.051947
    0   -2    1    3    5   -0.039840   -0.008871
    0   -2    1    4    5   -0.011644    0.044955
    0   -2    1    5    5   -0.000006    0.011540
    0   -2    1    6    5    0.000017   -0.016759
    0   -2    1    7    5    0.046931   -0.012214
    0   -2    1    8    5   -0.002539    0.012097
    0   -2    1    9    5    0.020240   -0.011660
    0   -2    1   10    5    0.005082    0.088410
    0   -2    1    1    6   -0.024979    0.051947
    0   -2    1    2    6   -0.049945    0.011384
    0   -2    1    3    6    0.011644    0.044955
    0   -2    1    4    6   -0.039840    0.008871
    0   -2    1    5    6   -0.000017   -0.016759
    0   -2    1    6    6   -0.000006   -0.011540
    0   -2    1    7    6    0.002539    0.012097
    0   -2    1    8    6    0.046931    0.012214
    0   -2    1    9    6   -0.005082    0.088410
    0   -2    1   10    6    0.020240    0.011660
    0   -2    1    1    7    0.074989    0.004890
    0   -2    1    2    7    0.003283   -0.009752
    0   -2    1    3    7   -0.041362   -0.024014
    0   -2    1    4    7    0.028787    0.005529
    0   -2    1    5    7    0.187865   -0.008985
    0   -2    1    6    7   -0.001279   -0.045196
    0   -2    1    7    7    0.027859   -0.047824
    0   -2    1    8    7    0.003820    0.021776
    0   -2    1    9    7   -0.016315   -0.018738
    0   -2    1   10    7    0.036142   -0.000783
    0   -2    1    1    8   -0.003283   -0.009752
    0   -2    1    2    8    0.074989   -0.004890
    0   -2    1    3    8   -0.028787    0.005529
    0   -2    1    4    8   -0.041362    0.024014
    0   -2    1    5    8    0.001279   -0.045196
    0   -2    1    6    8    0.187865    0.008985
    0   -2    1    7    8   -0.003820    0.021776
    0   -2    1    8    8    0.027859    0.047824
    0   -2    1    9    8   -0.036142   -0.000783
    0   -2    1   10    8   -0.016315    0.018738
    0   -2    1    1    9    0.025002    0.022196
    0   -2    1    2    9   -0.023793    0.023075
    0   -2    1    3    9    0.033068   -0.009403
    0   -2    1    4    9    0.052524   -0.014615
    0   -2    1    5    9    0.057536    0.001352
    0   -2    1    6    9    0.032332   -0.043534
    0   -2    1    7    9    0.066266    0.052629
    0   -2    1    8    9   -0.029996   -0.064167
    0   -2    1    9    9    0.066025   -0.020594
    0   -2    1   10    9   -0.081994    0.035159
    0   -2    1    1   10    0.023793    0.023075
    0   -2    1    2   10    0.025002   -0.022196
    0   -2    1    3   10   -0.052524   -0.014615
    0   -2    1    4   10    0.033068    0.009403
    0   -2    1    5   10   -0.032332   -0.043534
    0   -2    1    6   10    0.057536   -0.001352
    0   -2    1    7   10    0.029996   -0.064167
    0   -2    1    8   10    0.066266   -0.052629
    0   -2    1    9   10    0.081994    0.035159
    0   -2    1   10   10    0.066025    0.020594
    0   -1    0    1    1    0.190980    0.004712
    0   -1    0    2    1    0.000000   -0.004712
    0   -1    0    3    1   -0.143663    0.005459
    0   -1    0    4    1    0.000000   -0.005459
    0   -1    0    5    1   -0.043001   -0.013322
    0   -1    0    6    1   -0.000000    0.013322
    0   -1    0    7    1    0.198809   -0.116009
    0   -1    0    8    1    0.000000    0.116009
    0   -1    0    9    1    0.140682   -0.056401
    0   -1    0   10    1   -0.000000    0.056401
    0   -1    0    1    2    0.000000   -0.004712
    0   -1    0    2    2    0.190980   -0.004712
    0   -1    0    3    2   -0.000000   -0.005459
    0   -1    0    4    2   -0.143663   -0.005459
    0   -1    0    5    2    0.000000    0.013322
    0   -1    0    6    2   -0.043001    0.013322
    0   -1    0    7    2   -0.000000    0.116009
    0   -1    0    8    2    0.198809    0.116009
    0   -1    0    9    2   -0.000000    0.056401
    0   -1    0   10    2    0.140682    0.056401
    0   -1    0    1    3    0.103436   -0.096390
    0   -1    0    2    3    0.000000    0.096390
    0   -1    0    3    3   -0.171509   -0.006783
    0   -1    0    4    3   -0.000000    0.006783
    0   -1    0    5    3    0.070318    0.006994
    0   -1    0    6    3   -0.000000   -0.006994
    0   -1    0    7    3    0.045540   -0.020135
    0   -1    0    8    3   -0.000000    0.020135
    0   -1    0    9    3    0.001452   -0.007686
    0   -1    0   10    3    0.000000    0.007686
    0   -1    0    1    4    0.000000    0.096390
    0   -1    0    2    4    0.103436    0.096390
    0   -1    0    3    4    0.000000    0.006783
    0   -1    0    4    4   -0.171509    0.006783
    0   -1    0    5    4    0.000000   -0.006994
    0   -1    0    6    4    0.070318   -0.006994
    0   -1    0    7    4    0.000000    0.020135
    0   -1    0    8    4    0.045540    0.020135
    0   -1    0    9    4    0.000000    0.007686
    0   -1    0   10    4    0.001452    0.007686
    0   -1    0    1    5    0.212343    0.120676
    0   -1    0    2    5    0.000000   -0.120676
    0   -1    0    3    5   -0.028883   -0.003282
    0   -1    0    4    5    0.000000    0.003282
    0   -1    0    5    5    0.043621   -0.016969
    0   -1    0    6    5   -0.000000    0.016969
    0   -1    0    7    5   -0.060980   -0.026240
    0   -1    0    8    5    0.000000    0.026240
    0   -1    0    9    5   -0.044040    0.032564
    0   -1    0   10    5    0.000000   -0.032564
    0   -1    0    1    6   -0.000000   -0.120676
    0   -1    0    2    6    0.212343   -0.120676
    0   -1    0    3    6   -0.000000    0.003282
    0   -1    0    4    6   -0.028883    0.003282
    0   -1    0    5    6   -0.000000    0.016969
    0   -1    0    6    6    0.043621    0.016969
    0   -1    0    7    6   -0.000000    0.026240
    0   -1    0    8    6   -0.060980    0.026240
    0   -1    0    9    6   -0.000000   -0.032564
    0   -1    0   10    6   -0.044040   -0.032564
    0   -1    0    1    7   -0.043610    0.010393
    0   -1    0    2    7   -0.000000   -0.010393
    0   -1    0    3    7   -0.311218    0.001789
    0   -1    0    4    7    0.000000   -0.001789
    0   -1    0    5    7    0.232002    0.029140
    0   -1    0    6    7   -0.000000   -0.029140
    0   -1    0    7    7   -0.022289    0.023778
    0   -1    0    8    7    0.000000   -0.023778
    0   -1    0    9    7   -0.036355    0.055072
    0   -1    0   10    7    0.000000   -0.055072
    0   -1    0    1    8   -0.000000   -0.010393
    0   -1    0    2    8   -0.043610   -0.010393
    0   -1    0    3    8    0.000000   -0.001789
    0   -1    0    4    8   -0.311219   -0.001789
    0   -1    0    5    8    0.000000   -0.029140
    0   -1    0    6    8    0.232002   -0.029140
    0   -1    0    7    8   -0.000000   -0.023778
    0   -1    0    8    8   -0.022289   -0.023778
    0   -1    0    9    8   -0.000000   -0.055072
    0   -1    0   10    8   -0.036355   -0.055072
    0   -1    0    1    9   -0.107422    0.034792
    0   -1    0    2    9    0.000000   -0.034792
    0   -1    0    3    9    0.174460    0.020043
    0   -1    0    4    9    0.000000   -0.020043
    0   -1    0    5    9    0.050425    0.003382
    0   -1    0    6    9   -0.000000   -0.003382
    0   -1    0    7    9   -0.047687   -0.035246
    0   -1    0    8    9    0.000000    0.035246
    0   -1    0    9    9   -0.035186    0.023227
    0   -1    0   10    9    0.000000   -0.023227
    0   -1    0    1   10   -0.000000   -0.034792
    0   -1    0    2   10   -0.107422   -0.034792
    0   -1    0    3   10   -0.000000   -0.020043
    0   -1    0    4   10    0.174460   -0.020043
    0   -1    0    5   10    0.000000   -0.003382
    0   -1    0    6   10    0.050425   -0.003382
    0   -1    0    7   10    0.000000    0.035246
    0   -1    0    8   10   -0.047687    0.035246
    0   -1    0    9   10   -0.000000   -0.023227
    0   -1    0   10   10   -0.035186   -0.023227
    0   -1    1    1    1   -0.114139    0.020633
    0   -1    1    2    1   -0.023243   -0.023308
    0   -1    1    3    1   -0.097941   -0.003791
    0   -1    1    4    1    0.045519    0.063368
    0   -1    1    5    1    0.041707    0.055633
    0   -1    1    6    1   -0.021824   -0.047962
    0   -1    1    7    1   -0.087124   -0.008348
    0   -1    1    8    1    0.036885   -0.001725
    0   -1    1    9    1   -0.200196    0.007693
    0   -1    1   10    1    0.079598   -0.015150
    0   -1    1    1    2    0.023243   -0.023308
    0   -1    1    2    2   -0.114139   -0.020633
    0   -1    1    3    2   -0.045519    0.063368
    0   -1    1    4    2   -0.097941    0.003791
    0   -1    1    5    2    0.021824   -0.047962
    0   -1    1    6    2    0.041707   -0.055633
    0   -1    1    7    2   -0.036885   -0.001725
    0   -1    1    8    2   -0.087124    0.008348
    0   -1    1    9    2   -0.079598   -0.015150
    0   -1    1   10    2   -0.200196   -0.007693
    0   -1    1    1    3   -0.024413    0.013703
    0   -1    1    2    3    0.057222   -0.044797
    0   -1    1    3    3    0.116491   -0.031351
    0   -1    1    4    3   -0.036928   -0.019107
    0   -1    1    5    3   -0.058940    0.004214
    0   -1    1    6    3    0.010229    0.059977
    0   -1    1    7    3   -0.010058   -0.013679
    0   -1    1    8    3   -0.106399   -0.018022
    0   -1    1    9    3   -0.167332    0.001911
    0   -1    1   10    3   -0.062216    0.039214
    0   -1    1    1    4   -0.057222   -0.044797
    0   -1    1    2    4   -0.024413   -0.013703
    0   -1    1    3    4    0.036928   -0.019107
    0   -1    1    4    4    0.116491    0.031351
    0   -1    1    5    4   -0.010229    0.059977
    0   -1    1    6    4   -0.058940   -0.004214
    0   -1    1    7    4    0.106399   -0.018022
    0   -1    1    8    4   -0.010058    0.013679
    0   -1    1    9    4    0.062216    0.039214
    0   -1    1   10    4   -0.167332   -0.001911
    0   -1    1    1    5   -0.011240   -0.003474
    0   -1    1    2    5   -0.005206    0.015449
    0   -1    1    3    5    0.008513   -0.006654
    0   -1    1    4    5    0.008644    0.031013
    0   -1    1    5    5    0.064488    0.010911
    0   -1    1    6    5   -0.001997   -0.033332
    0   -1    1    7    5   -0.051887   -0.015027
    0   -1    1    8    5    0.038812    0.027215
    0   -1    1    9    5    0.049252    0.007781
    0   -1    1   10    5   -0.019216    0.028421
    0   -1    1    1    6    0.005206    0.015449
    0   -1    1    2    6   -0.011240    0.003474
    0   -1    1    3    6   -0.008644    0.031013
    0   -1    1    4    6    0.008513    0.006654
    0   -1    1    5    6    0.001997   -0.033332
    0   -1    1    6    6    0.064488   -0.010911
    0   -1    1    7    6   -0.038812    0.027215
    0   -1    1    8    6   -0.051887    0.015027
    0   -1    1    9    6    0.019216    0.028421
    0   -1    1   10    6    0.049252   -0.007781
    0   -1    1    1    7   -0.110936   -0.084172
    0   -1    1    2    7    0.022401    0.006606
    0   -1    1    3    7    0.003966    0.033150
    0   -1    1    4    7    0.005405    0.097242
    0   -1    1    5    7   -0.034177    0.002698
    0   -1    1    6    7    0.015941   -0.005519
    0   -1    1    7    7   -0.197052   -0.036281
    0   -1    1    8    7    0.020796   -0.005430
    0   -1    1    9    7   -0.035117   -0.016187
    0   -1    1   10    7    0.018521   -0.024839
    0   -1    1    1    8   -0.022401    0.006606
    0   -1    1    2    8   -0.110936    0.084172
    0   -1    1    3    8   -0.005405    0.097242
    0   -1    1    4    8    0.003966   -0.033150
    0   -1    1    5    8   -0.015941   -0.005519
    0   -1    1    6    8   -0.034177   -0.002698
    0   -1    1    7    8   -0.020796   -0.005430
    0   -1    1    8    8   -0.197052    0.036281
    0   -1    1    9    8   -0.018521   -0.024839
    0   -1    1   10    8   -0.035117    0.016187
    0   -1    1    1    9    0.044925    0.005161
    0   -1    1    2    9    0.084427    0.061517
    0   -1    1    3    9    0.020354    0.032102
    0   -1    1    4    9    0.004773    0.026168
    0   -1    1    5    9   -0.023921   -0.006756
    0   -1    1    6    9   -0.017814   -0.029009
    0   -1    1    7    9    0.007225    0.027626
    0   -1    1    8    9    0.026788   -0.112757
[...]
    1    1   -1    2    1   -0.003877    0.027763
    1    1   -1    3    1   -0.122719   -0.072685
    1    1   -1    4    1   -0.007689   -0.059240
    1    1   -1    5    1   -0.040911    0.033579
    1    1   -1    6    1    0.015694    0.048653
    1    1   -1    7    1    0.157053   -0.053408
    1    1   -1    8    1    0.012616    0.013215
    1    1   -1    9    1    0.033534   -0.021297
    1    1   -1   10    1   -0.055072   -0.026407
    1    1   -1    1    2    0.003877    0.027763
    1    1   -1    2    2   -0.006322   -0.066938
    1    1   -1    3    2    0.007689   -0.059240
    1    1   -1    4    2   -0.122719    0.072685
    1    1   -1    5    2   -0.015694    0.048653
    1    1   -1    6    2   -0.040911   -0.033579
    1    1   -1    7    2   -0.012616    0.013215
    1    1   -1    8    2    0.157053    0.053408
    1    1   -1    9    2    0.055072   -0.026407
    1    1   -1   10    2    0.033534    0.021297
    1    1   -1    1    3    0.010192   -0.003240
    1    1   -1    2    3   -0.063009   -0.017879
    1    1   -1    3    3   -0.031143   -0.025771
    1    1   -1    4    3   -0.053847   -0.008879
    1    1   -1    5    3    0.027971    0.030413
    1    1   -1    6    3   -0.015477   -0.007396
    1    1   -1    7    3    0.057086   -0.007150
    1    1   -1    8    3    0.045120    0.015273
    1    1   -1    9    3   -0.100810    0.029734
    1    1   -1   10    3   -0.009707   -0.059610
    1    1   -1    1    4    0.063009   -0.017879
    1    1   -1    2    4    0.010192    0.003240
    1    1   -1    3    4    0.053847   -0.008879
    1    1   -1    4    4   -0.031143    0.025771
    1    1   -1    5    4    0.015477   -0.007396
    1    1   -1    6    4    0.027971   -0.030413
    1    1   -1    7    4   -0.045120    0.015273
    1    1   -1    8    4    0.057086    0.007150
    1    1   -1    9    4    0.009707   -0.059610
    1    1   -1   10    4   -0.100810   -0.029734
    1    1   -1    1    5    0.062550    0.056319
    1    1   -1    2    5   -0.008208    0.011915
    1    1   -1    3    5    0.059719   -0.142315
    1    1   -1    4    5    0.023943   -0.046179
    1    1   -1    5    5    0.022601    0.024163
    1    1   -1    6    5   -0.003408    0.026735
    1    1   -1    7    5   -0.036586   -0.018333
    1    1   -1    8    5   -0.048707    0.007125
    1    1   -1    9    5   -0.033040    0.010800
    1    1   -1   10    5   -0.014351   -0.077203
    1    1   -1    1    6    0.008208    0.011915
    1    1   -1    2    6    0.062550   -0.056319
    1    1   -1    3    6   -0.023943   -0.046179
    1    1   -1    4    6    0.059719    0.142315
    1    1   -1    5    6    0.003408    0.026735
    1    1   -1    6    6    0.022601   -0.024163
    1    1   -1    7    6    0.048707    0.007125
    1    1   -1    8    6   -0.036586    0.018333
    1    1   -1    9    6    0.014351   -0.077203
    1    1   -1   10    6   -0.033040   -0.010800
    1    1   -1    1    7   -0.122363    0.083495
    1    1   -1    2    7   -0.032220    0.094906
    1    1   -1    3    7    0.037493    0.009648
    1    1   -1    4    7    0.030535   -0.001942
    1    1   -1    5    7    0.219298   -0.002376
    1    1   -1    6    7   -0.008742   -0.026506
    1    1   -1    7    7   -0.057913    0.024406
    1    1   -1    8    7   -0.013859   -0.009066
    1    1   -1    9    7    0.018305    0.086364
    1    1   -1   10    7   -0.056268   -0.056450
    1    1   -1    1    8    0.032220    0.094906
    1    1   -1    2    8   -0.122363   -0.083495
    1    1   -1    3    8   -0.030535   -0.001942
    1    1   -1    4    8    0.037493   -0.009648
    1    1   -1    5    8    0.008742   -0.026506
    1    1   -1    6    8    0.219298    0.002376
    1    1   -1    7    8    0.013859   -0.009066
    1    1   -1    8    8   -0.057913   -0.024406
    1    1   -1    9    8    0.056268   -0.056450
    1    1   -1   10    8    0.018305   -0.086364
    1    1   -1    1    9   -0.073727    0.002451
    1    1   -1    2    9   -0.082269    0.009122
    1    1   -1    3    9    0.054979   -0.050643
    1    1   -1    4    9    0.030222    0.031861
    1    1   -1    5    9   -0.084034   -0.007359
    1    1   -1    6    9   -0.001889    0.004647
    1    1   -1    7    9    0.035879   -0.111110
    1    1   -1    8    9    0.027507   -0.000905
    1    1   -1    9    9    0.050315   -0.022089
    1    1   -1   10    9   -0.015446    0.003129
    1    1   -1    1   10    0.082269    0.009122
    1    1   -1    2   10   -0.073727   -0.002451
    1    1   -1    3   10   -0.030222    0.031861
    1    1   -1    4   10    0.054979    0.050643
    1    1   -1    5   10    0.001889    0.004647
    1    1   -1    6   10   -0.084034    0.007359
    1    1   -1    7   10   -0.027507   -0.000905
    1    1   -1    8   10    0.035879    0.111110
    1    1   -1    9   10    0.015446    0.003129
    1    1   -1   10   10    0.050315    0.022089
    2   -1   -1    1    1   -0.011618   -0.041726
    2   -1   -1    2    1   -0.000000    0.041726
    2   -1   -1    3    1    0.081371   -0.012828
    2   -1   -1    4    1    0.000000    0.012828
    2   -1   -1    5    1    0.112347   -0.001120
    2   -1   -1    6    1   -0.000000    0.001120
    2   -1   -1    7    1    0.148587   -0.015771
    2   -1   -1    8    1   -0.000000    0.015771
    2   -1   -1    9    1    0.087418    0.008204
    2   -1   -1   10    1   -0.000000   -0.008204
    2   -1   -1    1    2   -0.000000    0.041726
    2   -1   -1    2    2   -0.011618    0.041726
    2   -1   -1    3    2    0.000000    0.012828
    2   -1   -1    4    2    0.081371    0.012828
    2   -1   -1    5    2    0.000000    0.001120
    2   -1   -1    6    2    0.112347    0.001120
    2   -1   -1    7    2    0.000000    0.015771
    2   -1   -1    8    2    0.148587    0.015771
    2   -1   -1    9    2    0.000000   -0.008204
    2   -1   -1   10    2    0.087418   -0.008204
    2   -1   -1    1    3    0.150335   -0.007764
    2   -1   -1    2    3   -0.000000    0.007764
    2   -1   -1    3    3   -0.071384   -0.011778
    2   -1   -1    4    3    0.000000    0.011778
    2   -1   -1    5    3   -0.000897   -0.001008
    2   -1   -1    6    3    0.000000    0.001008
    2   -1   -1    7    3   -0.025369   -0.028181
    2   -1   -1    8    3    0.000000    0.028181
    2   -1   -1    9    3    0.196101   -0.026695
    2   -1   -1   10    3    0.000000    0.026695
    2   -1   -1    1    4    0.000000    0.007764
    2   -1   -1    2    4    0.150335    0.007764
    2   -1   -1    3    4    0.000000    0.011778
    2   -1   -1    4    4   -0.071384    0.011778
    2   -1   -1    5    4    0.000000    0.001008
    2   -1   -1    6    4   -0.000897    0.001008
    2   -1   -1    7    4   -0.000000    0.028181
    2   -1   -1    8    4   -0.025369    0.028181
    2   -1   -1    9    4   -0.000000    0.026695
    2   -1   -1   10    4    0.196101    0.026695
    2   -1   -1    1    5    0.005776   -0.054536
    2   -1   -1    2    5    0.000000    0.054536
    2   -1   -1    3    5   -0.061941    0.002648
    2   -1   -1    4    5   -0.000000   -0.002648
    2   -1   -1    5    5   -0.021465   -0.004375
    2   -1   -1    6    5    0.000000    0.004375
    2   -1   -1    7    5    0.151373   -0.014445
    2   -1   -1    8    5   -0.000000    0.014445
    2   -1   -1    9    5   -0.071223   -0.003865
    2   -1   -1   10    5   -0.000000    0.003865
    2   -1   -1    1    6   -0.000000    0.054536
    2   -1   -1    2    6    0.005776    0.054536
    2   -1   -1    3    6    0.000000   -0.002648
    2   -1   -1    4    6   -0.061941   -0.002648
    2   -1   -1    5    6   -0.000000    0.004375
    2   -1   -1    6    6   -0.021465    0.004375
    2   -1   -1    7    6   -0.000000    0.014445
    2   -1   -1    8    6    0.151373    0.014445
    2   -1   -1    9    6   -0.000000    0.003865
    2   -1   -1   10    6   -0.071223    0.003865
    2   -1   -1    1    7    0.207866   -0.014344
    2   -1   -1    2    7    0.000000    0.014344
    2   -1   -1    3    7    0.078038   -0.008813
    2   -1   -1    4    7    0.000000    0.008813
    2   -1   -1    5    7    0.052609   -0.036741
    2   -1   -1    6    7   -0.000000    0.036741
    2   -1   -1    7    7    0.037914    0.006994
    2   -1   -1    8    7   -0.000000   -0.006994
    2   -1   -1    9    7   -0.002494    0.054060
    2   -1   -1   10    7   -0.000000   -0.054060
    2   -1   -1    1    8    0.000000    0.014344
    2   -1   -1    2    8    0.207866    0.014344
    2   -1   -1    3    8   -0.000000    0.008813
    2   -1   -1    4    8    0.078038    0.008813
    2   -1   -1    5    8    0.000000    0.036741
    2   -1   -1    6    8    0.052609    0.036741
    2   -1   -1    7    8   -0.000000   -0.006994
    2   -1   -1    8    8    0.037914   -0.006994
    2   -1   -1    9    8    0.000000   -0.054060
    2   -1   -1   10    8   -0.002494   -0.054060
    2   -1   -1    1    9    0.188010    0.017922
    2   -1   -1    2    9   -0.000000   -0.017922
    2   -1   -1    3    9   -0.049796    0.006707
    2   -1   -1    4    9    0.000000   -0.006707
    2   -1   -1    5    9   -0.078470   -0.034339
    2   -1   -1    6    9   -0.000000    0.034339
    2   -1   -1    7    9   -0.177556    0.039630
    2   -1   -1    8    9    0.000000   -0.039630
    2   -1   -1    9    9    0.048637    0.038991
    2   -1   -1   10    9   -0.000000   -0.038991
    2   -1   -1    1   10   -0.000000   -0.017922
    2   -1   -1    2   10    0.188010   -0.017922
    2   -1   -1    3   10    0.000000   -0.006707
    2   -1   -1    4   10   -0.049796   -0.006707
    2   -1   -1    5   10   -0.000000    0.034339
    2   -1   -1    6   10   -0.078470    0.034339
    2   -1   -1    7   10   -0.000000   -0.039630
    2   -1   -1    8   10   -0.177556   -0.039630
    2   -1   -1    9   10    0.000000   -0.038991
    2   -1   -1   10   10    0.048637   -0.038991
    2   -1    0    1    1   -0.056706   -0.063159
    2   -1    0    2    1    0.016312    0.011449
    2   -1    0    3    1    0.105286   -0.078356
    2   -1    0    4    1    0.039688   -0.048213
    2   -1    0    5    1   -0.049945    0.051947
    2   -1    0    6    1    0.024979   -0.011384
    2   -1    0    7    1    0.074989   -0.009752
    2   -1    0    8    1    0.003283    0.004890
    2   -1    0    9    1    0.025002    0.023075
    2   -1    0   10    1   -0.023793    0.022196
    2   -1    0    1    2   -0.016312    0.011449
    2   -1    0    2    2   -0.056706    0.063159
    2   -1    0    3    2   -0.039688   -0.048213
    2   -1    0    4    2    0.105286    0.078356
    2   -1    0    5    2   -0.024979   -0.011384
    2   -1    0    6    2   -0.049945   -0.051947
    2   -1    0    7    2   -0.003283    0.004890
    2   -1    0    8    2    0.074989    0.009752
    2   -1    0    9    2    0.023793    0.022196
    2   -1    0   10    2    0.025002   -0.023075
    2   -1    0    1    3   -0.121733    0.024437
    2   -1    0    2    3   -0.066783   -0.039640
    2   -1    0    3    3    0.011279    0.020131
    2   -1    0    4    3    0.076382    0.024633
    2   -1    0    5    3   -0.039840    0.044955
    2   -1    0    6    3   -0.011644   -0.008871
    2   -1    0    7    3   -0.041362    0.005529
    2   -1    0    8    3    0.028787   -0.024014
    2   -1    0    9    3    0.033068   -0.014615
    2   -1    0   10    3    0.052524   -0.009403
    2   -1    0    1    4    0.066783   -0.039640
    2   -1    0    2    4   -0.121733   -0.024437
    2   -1    0    3    4   -0.076382    0.024633
    2   -1    0    4    4    0.011279   -0.020131
    2   -1    0    5    4    0.011644   -0.008871
    2   -1    0    6    4   -0.039840   -0.044955
    2   -1    0    7    4   -0.028787   -0.024014
    2   -1    0    8    4   -0.041362   -0.005529
    2   -1    0    9    4   -0.052524   -0.009403
    2   -1    0   10    4    0.033068    0.014615
    2   -1    0    1    5    0.055477   -0.076493
    2   -1    0    2    5   -0.023639   -0.014093
    2   -1    0    3    5   -0.024064    0.010855
    2   -1    0    4    5   -0.006479    0.058710
    2   -1    0    5    5   -0.000006   -0.016759
    2   -1    0    6    5    0.000017    0.011540
    2   -1    0    7    5    0.187865   -0.045196
    2   -1    0    8    5   -0.001279   -0.008985
    2   -1    0    9    5    0.057536   -0.043534
    2   -1    0   10    5    0.032332    0.001352
    2   -1    0    1    6    0.023639   -0.014093
    2   -1    0    2    6    0.055477    0.076493
    2   -1    0    3    6    0.006479    0.058710
    2   -1    0    4    6   -0.024064   -0.010855
    2   -1    0    5    6   -0.000017    0.011540
    2   -1    0    6    6   -0.000006    0.016759
    2   -1    0    7    6    0.001279   -0.008985
    2   -1    0    8    6    0.187865    0.045196
    2   -1    0    9    6   -0.032332    0.001352
    2   -1    0   10    6    0.057536    0.043534
    2   -1    0    1    7    0.064155   -0.013374
    2   -1    0    2    7   -0.034747    0.091814
    2   -1    0    3    7    0.006357    0.013339
    2   -1    0    4    7    0.012745    0.025245
    2   -1    0    5    7    0.046931    0.012097
    2   -1    0    6    7   -0.002539   -0.012214
    2   -1    0    7    7    0.027859    0.021776
    2   -1    0    8    7    0.003820   -0.047824
    2   -1    0    9    7    0.066266   -0.064167
    2   -1    0   10    7   -0.029996    0.052629
    2   -1    0    1    8    0.034747    0.091814
    2   -1    0    2    8    0.064155    0.013374
    2   -1    0    3    8   -0.012745    0.025245
    2   -1    0    4    8    0.006357   -0.013339
    2   -1    0    5    8    0.002539   -0.012214
    2   -1    0    6    8    0.046931   -0.012097
    2   -1    0    7    8   -0.003820   -0.047824
    2   -1    0    8    8    0.027859   -0.021776
    2   -1    0    9    8    0.029996    0.052629
    2   -1    0   10    8    0.066266    0.064167
    2   -1    0    1    9    0.057828   -0.008527
    2   -1    0    2    9   -0.015473    0.050756
    2   -1    0    3    9    0.037978   -0.003387
    2   -1    0    4    9    0.016207   -0.016931
    2   -1    0    5    9    0.020240    0.088410
    2   -1    0    6    9    0.005082   -0.011660
    2   -1    0    7    9   -0.016315   -0.000783
    2   -1    0    8    9    0.036142   -0.018738
    2   -1    0    9    9    0.066025    0.035159
    2   -1    0   10    9   -0.081994   -0.020594
    2   -1    0    1   10    0.015473    0.050756
    2   -1    0    2   10    0.057828    0.008527
    2   -1    0    3   10   -0.016207   -0.016931
    2   -1    0    4   10    0.037978    0.003387
    2   -1    0    5   10   -0.005082   -0.011660
    2   -1    0    6   10    0.020240   -0.088410
    2   -1    0    7   10   -0.036142   -0.018738
    2   -1    0    8   10   -0.016315    0.000783
    2   -1    0    9   10    0.081994   -0.020594
    2   -1    0   10   10    0.066025   -0.035159
    2    0   -1    1    1    0.151609   -0.011663
    2    0   -1    2    1   -0.000000    0.011663
    2    0   -1    3    1    0.065512    0.031754
    2    0   -1    4    1    0.000000   -0.031754
    2    0   -1    5    1   -0.044239   -0.024426
    2    0   -1    6    1   -0.000000    0.024426
    2    0   -1    7    1   -0.062997   -0.055864
    2    0   -1    8    1   -0.000000    0.055864
    2    0   -1    9    1    0.083794   -0.013862
    2    0   -1   10    1   -0.000000    0.013862
    2    0   -1    1    2    0.000000    0.011663
    2    0   -1    2    2    0.151609    0.011663
    2    0   -1    3    2   -0.000000   -0.031754
    2    0   -1    4    2    0.065512   -0.031754
    2    0   -1    5    2    0.000000    0.024426
    2    0   -1    6    2   -0.044239    0.024426
    2    0   -1    7    2    0.000000    0.055864
    2    0   -1    8    2   -0.062997    0.055864
    2    0   -1    9    2   -0.000000    0.013862
    2    0   -1   10    2    0.083794    0.013862
    2    0   -1    1    3    0.175450    0.011661
    2    0   -1    2    3   -0.000000   -0.011661
    2    0   -1    3    3   -0.006727   -0.021266
    2    0   -1    4    3   -0.000000    0.021266
    2    0   -1    5    3    0.168002   -0.050373
    2    0   -1    6    3    0.000000    0.050373
    2    0   -1    7    3    0.073079    0.025667
    2    0   -1    8    3   -0.000000   -0.025667
    2    0   -1    9    3   -0.073519    0.008553
    2    0   -1   10    3   -0.000000   -0.008553
    2    0   -1    1    4    0.000000   -0.011661
    2    0   -1    2    4    0.175450   -0.011661
    2    0   -1    3    4    0.000000    0.021266
    2    0   -1    4    4   -0.006727    0.021266
    2    0   -1    5    4    0.000000    0.050373
    2    0   -1    6    4    0.168002    0.050373
    2    0   -1    7    4    0.000000   -0.025667
    2    0   -1    8    4    0.073079   -0.025667
    2    0   -1    9    4    0.000000   -0.008553
    2    0   -1   10    4   -0.073519   -0.008553
    2    0   -1    1    5    0.042364   -0.002483
    2    0   -1    2    5    0.000000    0.002483
    2    0   -1    3    5    0.137632    0.024158
    2    0   -1    4    5    0.000000   -0.024158
    2    0   -1    5    5   -0.010275   -0.010519
    2    0   -1    6    5    0.000000    0.010519
    2    0   -1    7    5    0.032526    0.011849
    2    0   -1    8    5    0.000000   -0.011849
    2    0   -1    9    5    0.056638   -0.024022
    2    0   -1   10    5    0.000000    0.024022
    2    0   -1    1    6   -0.000000    0.002483
    2    0   -1    2    6    0.042364    0.002483
    2    0   -1    3    6   -0.000000   -0.024158
    2    0   -1    4    6    0.137632   -0.024158
    2    0   -1    5    6   -0.000000    0.010519
    2    0   -1    6    6   -0.010275    0.010519
    2    0   -1    7    6   -0.000000   -0.011849
    2    0   -1    8    6    0.032526   -0.011849
    2    0   -1    9    6   -0.000000    0.024022
    2    0   -1   10    6    0.056638    0.024022
    2    0   -1    1    7    0.081700    0.030101
    2    0   -1    2    7   -0.000000   -0.030101
    2    0   -1    3    7   -0.051407   -0.040985
    2    0   -1    4    7   -0.000000    0.040985
    2    0   -1    5    7    0.118696    0.007346
    2    0   -1    6    7   -0.000000   -0.007346
    2    0   -1    7    7    0.031269   -0.027249
    2    0   -1    8    7   -0.000000    0.027249
    2    0   -1    9    7   -0.037205   -0.050993
    2    0   -1   10    7    0.000000    0.050993
    2    0   -1    1    8   -0.000000   -0.030101
    2    0   -1    2    8    0.081700   -0.030101
    2    0   -1    3    8    0.000000    0.040985
    2    0   -1    4    8   -0.051407    0.040985
    2    0   -1    5    8    0.000000   -0.007346
    2    0   -1    6    8    0.118696   -0.007346
    2    0   -1    7    8    0.000000    0.027249
    2    0   -1    8    8    0.031269    0.027249
    2    0   -1    9    8   -0.000000    0.050993
    2    0   -1   10    8   -0.037205    0.050993
    2    0   -1    1    9    0.099790    0.015539
    2    0   -1    2    9   -0.000000   -0.015539
    2    0   -1    3    9   -0.030738    0.009062
    2    0   -1    4    9    0.000000   -0.009062
    2    0   -1    5    9    0.087744    0.002398
    2    0   -1    6    9   -0.000000   -0.002398
    2    0   -1    7    9   -0.005472    0.080815
    2    0   -1    8    9   -0.000000   -0.080815
    2    0   -1    9    9   -0.117426    0.012634
    2    0   -1   10    9   -0.000000   -0.012634
    2    0   -1    1   10   -0.000000   -0.015539
    2    0   -1    2   10    0.099790   -0.015539
    2    0   -1    3   10    0.000000   -0.009062
    2    0   -1    4   10   -0.030738   -0.009062
    2    0   -1    5   10    0.000000   -0.002398
    2    0   -1    6   10    0.087744   -0.002398
    2    0   -1    7   10    0.000000   -0.080815
    2    0   -1    8   10   -0.005472   -0.080815
    2    0   -1    9   10   -0.000000   -0.012634
    2    0   -1   10   10   -0.117426   -0.012634
