 written on 24Sep2021 at 03:29:14 
  -2.8270001176531787        0.0000000000000000        2.8270001176531787     
   0.0000000000000000        2.8270001176531787        2.8270001176531787     
  -2.8270001176531787        2.8270001176531787        0.0000000000000000     
          16
          19
    6    2    2    6    2    6    2    2    2    1    2    2    2    6    2
    6    2    2    6

   -1   -1    1
    1    1    0.10632460E+00  0.36213036E-16
    2    1   -0.43025732E-03  0.13579323E-01
    3    1   -0.35448220E-01  0.13930014E-01
    4    1    0.12163695E-01 -0.11689629E-01
    5    1   -0.35115289E-01 -0.14325741E-01
    6    1   -0.14050046E-01  0.39461805E-04
    7    1   -0.36856123E-01 -0.87804651E-03
    8    1    0.26669643E-04  0.15601540E-04
    9    1    0.77369571E-01 -0.13025740E-02
   10    1    0.45834473E-03 -0.93671222E-03
   11    1   -0.42342428E+00 -0.29588555E-02
   12    1   -0.63770448E-02  0.48625216E-02
   13    1    0.77183461E-01  0.54329013E-03
   14    1    0.35590295E-02 -0.32868465E-02
   15    1    0.77384401E-01  0.24188537E-02
   16    1    0.11235163E-02 -0.24920724E-03
    1    2   -0.43025732E-03 -0.13579323E-01
    2    2    0.10634272E+00  0.45376496E-17
    3    2   -0.38631063E-04 -0.19378631E-04
    4    2   -0.35168903E-01 -0.14420667E-01
    5    2   -0.12480798E-01  0.12595643E-01
    6    2   -0.36473114E-01 -0.58308336E-03
    7    2    0.13720445E-01  0.10864910E-02
    8    2   -0.35512852E-01  0.13729841E-01
    9    2   -0.43766166E-03  0.76271905E-02
   10    2   -0.29598985E-01  0.17199789E-01
   11    2   -0.50402070E-03 -0.32200558E-02
   12    2    0.76309187E-01  0.49570354E-02
   13    2    0.13929244E-02 -0.16914430E-01
   14    2   -0.29328049E-01 -0.66429283E-02
   15    2    0.44521715E-03 -0.14044180E-01
   16    2   -0.14995384E-01  0.14397627E-01
    1    3   -0.35448220E-01 -0.13930014E-01
    2    3   -0.38631063E-04  0.19378631E-04
    3    3    0.10629844E+00 -0.67525715E-17
    4    3   -0.13756186E-01  0.75371523E-03
    5    3   -0.36452229E-01 -0.68312083E-04
    6    3    0.12263688E-01  0.12820930E-01
    7    3   -0.35522733E-01  0.13577439E-01
    8    3    0.49924605E-03 -0.13578860E-01
    9    3   -0.29412563E-01 -0.17549416E-01
   10    3    0.33636870E-03  0.76406067E-02
   11    3    0.76415514E-01 -0.41079030E-02
   12    3    0.53340691E-03 -0.32002550E-02
   13    3   -0.29387638E-01  0.62733143E-02
   14    3   -0.11832322E-02 -0.16932976E-01
   15    3   -0.14838423E-01 -0.14540823E-01
   16    3   -0.31942840E-03 -0.14018462E-01
    1    4    0.12163695E-01  0.11689629E-01
    2    4   -0.35168903E-01  0.14420667E-01
    3    4   -0.13756186E-01 -0.75371523E-03
    4    4    0.10635811E+00 -0.33176766E-16
    5    4   -0.18517705E-03 -0.14149827E-01
    6    4   -0.35081313E-01 -0.14294948E-01
    7    4   -0.12363431E-04  0.24539203E-04
    8    4   -0.36878108E-01 -0.18137880E-03
    9    4    0.16503108E-01 -0.86981812E-02
   10    4   -0.29287789E-01 -0.36726743E-03
   11    4    0.57052619E-02  0.64666809E-02
   12    4    0.76070284E-01 -0.12054141E-03
   13    4    0.14294632E-01  0.14165141E-01
   14    4   -0.15423223E-01 -0.14783744E-03
   15    4   -0.84012035E-02  0.16257336E-01
   16    4   -0.29506916E-01  0.28609203E-03
    1    5   -0.35115289E-01  0.14325741E-01
    2    5   -0.12480798E-01 -0.12595643E-01
    3    5   -0.36452229E-01  0.68312083E-04
    4    5   -0.18517705E-03  0.14149827E-01
    5    5    0.10633472E+00  0.13354982E-16
    6    5    0.22287770E-04 -0.13665984E-04
    7    5   -0.34988598E-01 -0.14522638E-01
    8    5    0.14047558E-01 -0.20617486E-03
    9    5   -0.14781680E-01  0.14539461E-01
   10    5    0.14175813E-01  0.48368675E-03
   11    5    0.76400694E-01  0.42872282E-02
   12    5    0.25436845E-02 -0.66237717E-03
   13    5   -0.29198863E-01 -0.63701748E-02
   14    5    0.17245832E-01  0.12262151E-02
   15    5   -0.29517702E-01  0.17503642E-01
   16    5   -0.73751723E-02 -0.13594029E-03
    1    6   -0.14050046E-01 -0.39461805E-04
    2    6   -0.36473114E-01  0.58308336E-03
    3    6    0.12263688E-01 -0.12820930E-01
    4    6   -0.35081313E-01  0.14294948E-01
    5    6    0.22287770E-04  0.13665984E-04
    6    6    0.10629178E+00  0.22306900E-16
    7    6    0.88480715E-04  0.14160248E-01
    8    6   -0.35274058E-01 -0.13902762E-01
    9    6   -0.14146980E-01  0.56698799E-03
   10    6   -0.14816355E-01 -0.14459471E-01
   11    6   -0.25377030E-02 -0.63072150E-03
   12    6    0.76351767E-01 -0.47878175E-02
   13    6   -0.17212368E-01  0.13469135E-02
   14    6   -0.29192299E-01  0.65241852E-02
   15    6    0.73588121E-02 -0.20386312E-03
   16    6   -0.29645270E-01 -0.17261411E-01
    1    7   -0.36856123E-01  0.87804651E-03
    2    7    0.13720445E-01 -0.10864910E-02
    3    7   -0.35522733E-01 -0.13577439E-01
    4    7   -0.12363431E-04 -0.24539203E-04
    5    7   -0.34988598E-01  0.14522638E-01
    6    7    0.88480715E-04 -0.14160248E-01
    7    7    0.10628933E+00  0.21228597E-16
    8    7   -0.11929110E-01  0.11907274E-01
    9    7   -0.29311093E-01  0.70659195E-03
   10    7   -0.16601518E-01 -0.85212057E-02
   11    7    0.76017550E-01 -0.87811169E-03
   12    7   -0.56304524E-02  0.65429647E-02
   13    7   -0.15389013E-01  0.31162539E-03
   14    7   -0.14110910E-01  0.14325739E-01
   15    7   -0.29535410E-01  0.12202076E-03
   16    7    0.85867582E-02  0.16148237E-01
    1    8    0.26669643E-04 -0.15601540E-04
    2    8   -0.35512852E-01 -0.13729841E-01
    3    8    0.49924605E-03  0.13578860E-01
    4    8   -0.36878108E-01  0.18137880E-03
    5    8    0.14047558E-01  0.20617486E-03
    6    8   -0.35274058E-01  0.13902762E-01
    7    8   -0.11929110E-01 -0.11907274E-01
    8    8    0.10626178E+00  0.19335010E-17
    9    8   -0.45604456E-03 -0.93060344E-03
   10    8    0.77398376E-01  0.18633224E-02
   11    8    0.63337160E-02  0.49076071E-02
   12    8   -0.42343392E+00  0.57427649E-03
   13    8   -0.35334992E-02 -0.33023079E-02
   14    8    0.77167526E-01 -0.75158918E-04
   15    8   -0.11456090E-02 -0.26673133E-03
   16    8    0.77373595E-01 -0.20095322E-02
    1    9    0.77369571E-01  0.13025740E-02
    2    9   -0.43766166E-03 -0.76271905E-02
    3    9   -0.29412563E-01  0.17549416E-01
    4    9    0.16503108E-01  0.86981812E-02
    5    9   -0.14781680E-01 -0.14539461E-01
    6    9   -0.14146980E-01 -0.56698799E-03
    7    9   -0.29311093E-01 -0.70659195E-03
    8    9   -0.45604456E-03  0.93060344E-03
    9    9    0.18732362E+00  0.93620757E-17
   10    9    0.23996817E-04 -0.96915167E-05
   11    9   -0.49279080E-01  0.57416581E-02
   12    9    0.53246461E-02 -0.20947672E-04
   13    9   -0.49298775E-01 -0.56551781E-02
   14    9   -0.87005973E-05  0.53115894E-02
   15    9   -0.49813861E-01  0.11752446E-03
   16    9   -0.42658353E-02 -0.42581280E-02
    1   10    0.45834473E-03  0.93671222E-03
    2   10   -0.29598985E-01 -0.17199789E-01
    3   10    0.33636870E-03 -0.76406067E-02
    4   10   -0.29287789E-01  0.36726743E-03
    5   10    0.14175813E-01 -0.48368675E-03
    6   10   -0.14816355E-01  0.14459471E-01
    7   10   -0.16601518E-01  0.85212057E-02
    8   10    0.77398376E-01 -0.18633224E-02
    9   10    0.23996817E-04  0.96915167E-05
   10   10    0.18726246E+00 -0.75735521E-16
   11   10   -0.52943008E-02 -0.11919560E-04
   12   10   -0.49325224E-01 -0.56666471E-02
   13   10    0.20091176E-04  0.53291861E-02
   14   10   -0.49299020E-01  0.57001078E-02
   15   10    0.42402633E-02 -0.42722737E-02
   16   10   -0.49806912E-01 -0.45575194E-05
    1   11   -0.42342428E+00  0.29588555E-02
    2   11   -0.50402070E-03  0.32200558E-02
    3   11    0.76415514E-01  0.41079030E-02
    4   11    0.57052619E-02 -0.64666809E-02
    5   11    0.76400694E-01 -0.42872282E-02
    6   11   -0.25377030E-02  0.63072150E-03
    7   11    0.76017550E-01  0.87811169E-03
    8   11    0.63337160E-02 -0.49076071E-02
    9   11   -0.49279080E-01 -0.57416581E-02
   10   11   -0.52943008E-02  0.11919560E-04
   11   11    0.18729251E+00 -0.77781902E-17
   12   11    0.34734516E-04  0.20411881E-04
   13   11   -0.49825148E-01 -0.27116256E-04
   14   11    0.42733080E-02 -0.42381042E-02
   15   11   -0.49290559E-01  0.57319430E-02
   16   11    0.32557101E-04  0.53655728E-02
    1   12   -0.63770448E-02 -0.48625216E-02
    2   12    0.76309187E-01 -0.49570354E-02
    3   12    0.53340691E-03  0.32002550E-02
    4   12    0.76070284E-01  0.12054141E-03
    5   12    0.25436845E-02  0.66237717E-03
    6   12    0.76351767E-01  0.47878175E-02
    7   12   -0.56304524E-02 -0.65429647E-02
    8   12   -0.42343392E+00 -0.57427649E-03
    9   12    0.53246461E-02  0.20947672E-04
   10   12   -0.49325224E-01  0.56666471E-02
   11   12    0.34734516E-04 -0.20411881E-04
   12   12    0.18723814E+00 -0.27059802E-16
   13   12   -0.42659408E-02 -0.42394794E-02
   14   12   -0.49806477E-01 -0.14845320E-04
   15   12   -0.32531590E-04  0.53453192E-02
   16   12   -0.49297856E-01 -0.57087652E-02
    1   13    0.77183461E-01 -0.54329013E-03
    2   13    0.13929244E-02  0.16914430E-01
    3   13   -0.29387638E-01 -0.62733143E-02
    4   13    0.14294632E-01 -0.14165141E-01
    5   13   -0.29198863E-01  0.63701748E-02
    6   13   -0.17212368E-01 -0.13469135E-02
    7   13   -0.15389013E-01 -0.31162539E-03
    8   13   -0.35334992E-02  0.33023079E-02
    9   13   -0.49298775E-01  0.56551781E-02
   10   13    0.20091176E-04 -0.53291861E-02
   11   13   -0.49825148E-01  0.27116256E-04
   12   13   -0.42659408E-02  0.42394794E-02
   13   13    0.18728663E+00 -0.97923480E-16
   14   13   -0.13448482E-04 -0.29762398E-04
   15   13   -0.49318763E-01 -0.56144720E-02
   16   13    0.53257406E-02  0.15667439E-05
    1   14    0.35590295E-02  0.32868465E-02
    2   14   -0.29328049E-01  0.66429283E-02
    3   14   -0.11832322E-02  0.16932976E-01
    4   14   -0.15423223E-01  0.14783744E-03
    5   14    0.17245832E-01 -0.12262151E-02
    6   14   -0.29192299E-01 -0.65241852E-02
    7   14   -0.14110910E-01 -0.14325739E-01
    8   14    0.77167526E-01  0.75158918E-04
    9   14   -0.87005973E-05 -0.53115894E-02
   10   14   -0.49299020E-01 -0.57001078E-02
   11   14    0.42733080E-02  0.42381042E-02
   12   14   -0.49806477E-01  0.14845320E-04
   13   14   -0.13448482E-04  0.29762398E-04
   14   14    0.18734518E+00 -0.47823345E-17
   15   14   -0.53478554E-02  0.83141663E-05
   16   14   -0.49293819E-01  0.56986842E-02
    1   15    0.77384401E-01 -0.24188537E-02
    2   15    0.44521715E-03  0.14044180E-01
    3   15   -0.14838423E-01  0.14540823E-01
    4   15   -0.84012035E-02 -0.16257336E-01
    5   15   -0.29517702E-01 -0.17503642E-01
    6   15    0.73588121E-02  0.20386312E-03
    7   15   -0.29535410E-01 -0.12202076E-03
    8   15   -0.11456090E-02  0.26673133E-03
    9   15   -0.49813861E-01 -0.11752446E-03
   10   15    0.42402633E-02  0.42722737E-02
   11   15   -0.49290559E-01 -0.57319430E-02
   12   15   -0.32531590E-04 -0.53453192E-02
   13   15   -0.49318763E-01  0.56144720E-02
   14   15   -0.53478554E-02 -0.83141663E-05
   15   15    0.18728317E+00 -0.12938181E-16
   16   15   -0.44360637E-04  0.28330446E-04
    1   16    0.11235163E-02  0.24920724E-03
    2   16   -0.14995384E-01 -0.14397627E-01
    3   16   -0.31942840E-03  0.14018462E-01
    4   16   -0.29506916E-01 -0.28609203E-03
    5   16   -0.73751723E-02  0.13594029E-03
    6   16   -0.29645270E-01  0.17261411E-01
    7   16    0.85867582E-02 -0.16148237E-01
    8   16    0.77373595E-01  0.20095322E-02
    9   16   -0.42658353E-02  0.42581280E-02
   10   16   -0.49806912E-01  0.45575194E-05
   11   16    0.32557101E-04 -0.53655728E-02
   12   16   -0.49297856E-01  0.57087652E-02
   13   16    0.53257406E-02 -0.15667439E-05
   14   16   -0.49293819E-01 -0.56986842E-02
   15   16   -0.44360637E-04 -0.28330446E-04
   16   16    0.18733638E+00 -0.63059865E-16

   -1    0    0
    1    1   -0.22587277E+00  0.34109362E-15
    2    1   -0.15581524E-02  0.98477497E-02
    3    1   -0.17043089E+00  0.55403377E-02
    4    1   -0.11977600E-01 -0.13032063E-01
    5    1    0.17524199E+00 -0.48009854E-02
    6    1    0.24513461E-01 -0.11996356E-02
    7    1    0.17596130E+00  0.33570221E-02
    8    1    0.43679848E-05 -0.12554553E-04
    9    1   -0.14871899E+01 -0.41150466E-02
   10    1   -0.34068623E-01  0.32308504E-01
   11    1   -0.27044930E+00  0.13583447E-01
   12    1   -0.45724860E-02  0.16362870E-01
   13    1   -0.14867824E+01  0.63674116E-02
   14    1   -0.44142381E-01  0.41674832E-01
   15    1    0.76337627E+00  0.66234103E-02
   16    1    0.11158717E-01 -0.17234349E-01
    1    2   -0.15581524E-02 -0.98477497E-02
    2    2   -0.22593192E+00  0.38107285E-15
    3    2   -0.14962820E-04  0.23714552E-05
    4    2    0.17539623E+00 -0.44249629E-02
    5    2    0.13706816E-01  0.89417347E-02
    6    2    0.17610104E+00  0.26808560E-02
    7    2   -0.22985846E-01 -0.29689176E-02
    8    2   -0.17045474E+00  0.46049386E-02
    9    2   -0.10129025E-01  0.46046421E-02
   10    2    0.89047659E+00  0.80647321E-02
   11    2   -0.54359171E-02  0.14995919E-01
   12    2    0.89046668E+00  0.32064315E-02
   13    2   -0.20334531E-01 -0.65426631E-03
   14    2    0.89027660E+00  0.12336814E-01
   15    2    0.69189220E-02  0.77886172E-03
   16    2   -0.12940408E+01 -0.11609837E-01
    1    3   -0.17043089E+00 -0.55403377E-02
    2    3   -0.14962820E-04 -0.23714552E-05
    3    3   -0.22603225E+00  0.34116200E-15
    4    3    0.23050554E-01 -0.24209398E-02
    5    3    0.17607365E+00  0.44429858E-03
    6    3   -0.13862738E-01  0.86940882E-02
    7    3    0.17520785E+00  0.86740686E-02
    8    3    0.16038392E-02 -0.98568159E-02
    9    3    0.89058965E+00  0.32677018E-02
   10    3    0.10037007E-01  0.47577250E-02
   11    3    0.89040880E+00  0.67169232E-02
   12    3    0.52670418E-02  0.15062973E-01
   13    3    0.89040422E+00 -0.16279422E-02
   14    3    0.20357579E-01 -0.43064271E-03
   15    3   -0.12941061E+01 -0.21630761E-02
   16    3   -0.69113187E-02  0.70283139E-03
    1    4   -0.11977600E-01  0.13032063E-01
    2    4    0.17539623E+00  0.44249629E-02
    3    4    0.23050554E-01  0.24209398E-02
    4    4    0.13279595E+00  0.37058205E-15
    5    4   -0.93920611E-04 -0.38998155E-02
    6    4   -0.18448677E+00  0.40273129E-02
    7    4    0.11380957E-05 -0.49729826E-05
    8    4    0.17593799E+00  0.70341521E-04
    9    4   -0.29420537E-01 -0.40516002E-01
   10    4   -0.14871264E+01  0.83360605E-02
   11    4   -0.38116568E-01 -0.50602092E-01
   12    4   -0.14865541E+01  0.18625133E-01
   13    4   -0.15732211E-01 -0.55319512E-02
   14    4   -0.27030640E+00  0.15619421E-01
   15    4    0.15825355E-01  0.14526764E-01
   16    4    0.76338286E+00  0.17214481E-02
    1    5    0.17524199E+00  0.48009854E-02
    2    5    0.13706816E-01 -0.89417347E-02
    3    5    0.17607365E+00 -0.44429858E-03
    4    5   -0.93920611E-04  0.38998155E-02
    5    5    0.13282471E+00  0.36536346E-15
    6    5   -0.14414394E-05  0.51048006E-05
    7    5   -0.18452300E+00  0.28547313E-02
    8    5   -0.24493479E-01  0.14924998E-02
    9    5   -0.27045911E+00 -0.21813347E-03
   10    5   -0.11646944E-01 -0.11836563E-01
   11    5   -0.14878929E+01 -0.44404201E-02
   12    5    0.21616834E-01 -0.38051634E-02
   13    5   -0.14878654E+01  0.42406725E-02
   14    5   -0.24232003E-02  0.21123834E-01
   15    5    0.76339366E+00 -0.76784423E-03
   16    5   -0.16050241E-01 -0.15329785E-01
    1    6    0.24513461E-01  0.11996356E-02
    2    6    0.17610104E+00 -0.26808560E-02
    3    6   -0.13862738E-01 -0.86940882E-02
    4    6   -0.18448677E+00 -0.40273129E-02
    5    6   -0.14414394E-05 -0.51048006E-05
    6    6    0.13286816E+00  0.37099969E-15
    7    6    0.79349715E-04  0.39172546E-02
    8    6    0.17513586E+00 -0.69321694E-02
    9    6    0.11570463E-01 -0.11916325E-01
   10    6   -0.27055961E+00  0.15799442E-02
   11    6   -0.21654950E-01 -0.36597306E-02
   12    6   -0.14878126E+01  0.14223225E-01
   13    6    0.25471104E-02  0.21104292E-01
   14    6   -0.14879033E+01  0.42772777E-02
   15    6    0.15947196E-01 -0.15439255E-01
   16    6    0.76339053E+00 -0.46385049E-02
    1    7    0.17596130E+00 -0.33570221E-02
    2    7   -0.22985846E-01  0.29689176E-02
    3    7    0.17520785E+00 -0.86740686E-02
    4    7    0.11380957E-05  0.49729826E-05
    5    7   -0.18452300E+00 -0.28547313E-02
    6    7    0.79349715E-04 -0.39172546E-02
    7    7    0.13283834E+00  0.35983703E-15
    8    7    0.12211363E-01  0.12802235E-01
    9    7   -0.14870941E+01  0.86326651E-02
   10    7    0.28943409E-01 -0.40832232E-01
   11    7   -0.14867291E+01  0.69317645E-03
   12    7    0.37451610E-01 -0.51088065E-01
   13    7   -0.27049873E+00 -0.12340269E-01
   14    7    0.15659981E-01 -0.57367940E-02
   15    7    0.76328181E+00 -0.12023506E-01
   16    7   -0.15628396E-01  0.14738362E-01
    1    8    0.43679848E-05  0.12554553E-04
    2    8   -0.17045474E+00 -0.46049386E-02
    3    8    0.16038392E-02  0.98568159E-02
    4    8    0.17593799E+00 -0.70341521E-04
    5    8   -0.24493479E-01 -0.14924998E-02
    6    8    0.17513586E+00  0.69321694E-02
    7    8    0.12211363E-01 -0.12802235E-01
    8    8   -0.22597781E+00  0.34835722E-15
    9    8    0.33826913E-01  0.32546437E-01
   10    8   -0.14872208E+01 -0.65976846E-02
   11    8    0.44867012E-02  0.16391142E-01
   12    8   -0.27030022E+00 -0.15114798E-01
   13    8    0.43875525E-01  0.41977146E-01
   14    8   -0.14867012E+01 -0.15977587E-01
   15    8   -0.11067576E-01 -0.17296196E-01
   16    8    0.76340070E+00 -0.27220545E-02
    1    9   -0.14871899E+01  0.41150466E-02
    2    9   -0.10129025E-01 -0.46046421E-02
    3    9    0.89058965E+00 -0.32677018E-02
    4    9   -0.29420537E-01  0.40516002E-01
    5    9   -0.27045911E+00  0.21813347E-03
    6    9    0.11570463E-01  0.11916325E-01
    7    9   -0.14870941E+01 -0.86326651E-02
    8    9    0.33826913E-01 -0.32546437E-01
    9    9    0.84110901E-01  0.60274713E-15
   10    9   -0.24021537E-05  0.15097149E-05
   11    9    0.22994770E+00  0.20620984E-01
   12    9   -0.75183536E-02  0.80940655E-02
   13    9   -0.27941386E+00  0.15948688E-01
   14    9   -0.40936541E-04 -0.11397947E-01
   15    9    0.22979083E+00 -0.92143199E-02
   16    9    0.21237118E-02 -0.22089576E-01
    1   10   -0.34068623E-01 -0.32308504E-01
    2   10    0.89047659E+00 -0.80647321E-02
    3   10    0.10037007E-01 -0.47577250E-02
    4   10   -0.14871264E+01 -0.83360605E-02
    5   10   -0.11646944E-01  0.11836563E-01
    6   10   -0.27055961E+00 -0.15799442E-02
    7   10    0.28943409E-01  0.40832232E-01
    8   10   -0.14872208E+01  0.65976846E-02
    9   10   -0.24021537E-05 -0.15097149E-05
   10   10    0.84154312E-01  0.48611997E-15
   11   10    0.75376608E-02  0.80902755E-02
   12   10    0.22993579E+00 -0.20991463E-01
   13   10    0.32912190E-04 -0.11383881E-01
   14   10   -0.27941171E+00 -0.15758037E-01
   15   10   -0.21762107E-02 -0.22085552E-01
   16   10    0.22978046E+00  0.87321321E-02
    1   11   -0.27044930E+00 -0.13583447E-01
    2   11   -0.54359171E-02 -0.14995919E-01
    3   11    0.89040880E+00 -0.67169232E-02
    4   11   -0.38116568E-01  0.50602092E-01
    5   11   -0.14878929E+01  0.44404201E-02
    6   11   -0.21654950E-01  0.36597306E-02
    7   11   -0.14867291E+01 -0.69317645E-03
    8   11    0.44867012E-02 -0.16391142E-01
    9   11    0.22994770E+00 -0.20620984E-01
   10   11    0.75376608E-02 -0.80902755E-02
   11   11   -0.11986209E+00  0.51426113E-15
   12   11    0.18358395E-04  0.35884149E-05
   13   11    0.22980043E+00 -0.85834173E-02
   14   11   -0.22635375E-02 -0.22156930E-01
   15   11   -0.40987235E+00 -0.16061972E-01
   16   11    0.27163872E-03 -0.98583792E-02
    1   12   -0.45724860E-02 -0.16362870E-01
    2   12    0.89046668E+00 -0.32064315E-02
    3   12    0.52670418E-02 -0.15062973E-01
    4   12   -0.14865541E+01 -0.18625133E-01
    5   12    0.21616834E-01  0.38051634E-02
    6   12   -0.14878126E+01 -0.14223225E-01
    7   12    0.37451610E-01  0.51088065E-01
    8   12   -0.27030022E+00  0.15114798E-01
    9   12   -0.75183536E-02 -0.80940655E-02
   10   12    0.22993579E+00  0.20991463E-01
   11   12    0.18358395E-04 -0.35884149E-05
   12   12   -0.11989300E+00  0.52421669E-15
   13   12    0.22951049E-02 -0.22159470E-01
   14   12    0.22976774E+00  0.87692229E-02
   15   12   -0.26187966E-03 -0.98520073E-02
   16   12   -0.40987564E+00  0.16276359E-01
    1   13   -0.14867824E+01 -0.63674116E-02
    2   13   -0.20334531E-01  0.65426631E-03
    3   13    0.89040422E+00  0.16279422E-02
    4   13   -0.15732211E-01  0.55319512E-02
    5   13   -0.14878654E+01 -0.42406725E-02
    6   13    0.25471104E-02 -0.21104292E-01
    7   13   -0.27049873E+00  0.12340269E-01
    8   13    0.43875525E-01 -0.41977146E-01
    9   13   -0.27941386E+00 -0.15948688E-01
   10   13    0.32912190E-04  0.11383881E-01
   11   13    0.22980043E+00  0.85834173E-02
   12   13    0.22951049E-02  0.22159470E-01
   13   13    0.84099974E-01  0.49071430E-15
   14   13   -0.33280957E-05  0.70297285E-05
   15   13    0.22989760E+00 -0.21196606E-01
   16   13   -0.77763708E-02 -0.80378847E-02
    1   14   -0.44142381E-01 -0.41674832E-01
    2   14    0.89027660E+00 -0.12336814E-01
    3   14    0.20357579E-01  0.43064271E-03
    4   14   -0.27030640E+00 -0.15619421E-01
    5   14   -0.24232003E-02 -0.21123834E-01
    6   14   -0.14879033E+01 -0.42772777E-02
    7   14    0.15659981E-01  0.57367940E-02
    8   14   -0.14867012E+01  0.15977587E-01
    9   14   -0.40936541E-04  0.11397947E-01
   10   14   -0.27941171E+00  0.15758037E-01
   11   14   -0.22635375E-02  0.22156930E-01
   12   14    0.22976774E+00 -0.87692229E-02
   13   14   -0.33280957E-05 -0.70297285E-05
   14   14    0.84079794E-01  0.46472881E-15
   15   14    0.77614173E-02 -0.80424383E-02
   16   14    0.22993962E+00  0.20890684E-01
    1   15    0.76337627E+00 -0.66234103E-02
    2   15    0.69189220E-02 -0.77886172E-03
    3   15   -0.12941061E+01  0.21630761E-02
    4   15    0.15825355E-01 -0.14526764E-01
    5   15    0.76339366E+00  0.76784423E-03
    6   15    0.15947196E-01  0.15439255E-01
    7   15    0.76328181E+00  0.12023506E-01
    8   15   -0.11067576E-01  0.17296196E-01
    9   15    0.22979083E+00  0.92143199E-02
   10   15   -0.21762107E-02  0.22085552E-01
   11   15   -0.40987235E+00  0.16061972E-01
   12   15   -0.26187966E-03  0.98520073E-02
   13   15    0.22989760E+00  0.21196606E-01
   14   15    0.77614173E-02  0.80424383E-02
   15   15   -0.11990617E+00  0.48565138E-15
   16   15   -0.64591848E-06 -0.92729110E-05
    1   16    0.11158717E-01  0.17234349E-01
    2   16   -0.12940408E+01  0.11609837E-01
    3   16   -0.69113187E-02 -0.70283139E-03
    4   16    0.76338286E+00 -0.17214481E-02
    5   16   -0.16050241E-01  0.15329785E-01
    6   16    0.76339053E+00  0.46385049E-02
    7   16   -0.15628396E-01 -0.14738362E-01
    8   16    0.76340070E+00  0.27220545E-02
    9   16    0.21237118E-02  0.22089576E-01
   10   16    0.22978046E+00 -0.87321321E-02
   11   16    0.27163872E-03  0.98583792E-02
   12   16   -0.40987564E+00 -0.16276359E-01
   13   16   -0.77763708E-02  0.80378847E-02
   14   16    0.22993962E+00 -0.20890684E-01
   15   16   -0.64591848E-06  0.92729110E-05
   16   16   -0.11989638E+00  0.54878372E-15

   -1    0    1
    1    1    0.13278957E+00 -0.16430406E-16
    2    1    0.58430550E-03 -0.22370623E-01
    3    1    0.17543291E+00  0.68287169E-02
    4    1    0.11684066E-01  0.11008021E-01
    5    1   -0.18451121E+00  0.37619487E-02
    6    1   -0.32320254E-02  0.62800620E-03
    7    1    0.17606170E+00  0.32530541E-02
    8    1   -0.83763311E-05 -0.39263161E-05
    9    1    0.76466093E-01 -0.37233276E-02
   10    1   -0.20497412E-02 -0.95170058E-03
   11    1   -0.14509972E-01 -0.14694727E-01
   12    1   -0.14172043E-01  0.52084491E-03
   13    1   -0.29458159E-01 -0.17635112E-01
   14    1    0.72712926E-02  0.10338172E-03
   15    1   -0.29143285E-01  0.61104592E-02
   16    1   -0.17413072E-01  0.11909413E-02
    1    2    0.58430550E-03  0.22370623E-01
    2    2   -0.22592247E+00 -0.67123304E-17
    3    2    0.10281105E-04 -0.22925716E-06
    4    2   -0.17025854E+00 -0.78928226E-02
    5    2   -0.98948837E-02 -0.15068563E-01
    6    2    0.17590014E+00  0.26087555E-02
    7    2    0.10447099E-01  0.35533967E-02
    8    2    0.17538578E+00  0.77865935E-02
    9    2   -0.54714442E-02  0.49122348E-02
   10    2    0.76218246E-01  0.65070133E-03
   11    2   -0.16567823E-01 -0.82860771E-02
   12    2   -0.29397759E-01 -0.25022973E-03
   13    2    0.81694981E-02  0.16911643E-01
   14    2   -0.29207370E-01 -0.31317184E-03
   15    2   -0.14477269E-01  0.14330087E-01
   16    2   -0.15051537E-01 -0.19899383E-03
    1    3    0.17543291E+00 -0.68287169E-02
    2    3    0.10281105E-04  0.22925716E-06
    3    3   -0.22591941E+00 -0.77843476E-16
    4    3   -0.10527023E-01  0.33094608E-02
    5    3    0.17595405E+00  0.50403487E-03
    6    3    0.10173489E-01 -0.14907764E-01
    7    3   -0.17041669E+00  0.37709059E-02
    8    3   -0.68283080E-03  0.22360212E-01
    9    3    0.76166559E-01  0.32273346E-03
   10    3    0.53907895E-02  0.49677953E-02
   11    3   -0.29398967E-01 -0.55253553E-04
   12    3    0.16658091E-01 -0.80776077E-02
   13    3   -0.29253356E-01 -0.57394448E-04
   14    3   -0.84047573E-02  0.16797569E-01
   15    3   -0.15075253E-01  0.55933610E-04
   16    3    0.14309092E-01  0.14490725E-01
    1    4    0.11684066E-01 -0.11008021E-01
    2    4   -0.17025854E+00  0.78928226E-02
    3    4   -0.10527023E-01 -0.33094608E-02
    4    4   -0.22594891E+00 -0.19934894E-16
    5    4    0.98966620E-03  0.25127066E-01
    6    4    0.17509193E+00 -0.50654388E-02
    7    4   -0.13794269E-04 -0.10890780E-04
    8    4    0.17612690E+00 -0.29999846E-04
    9    4    0.75628377E-03 -0.17096519E-02
   10    4    0.76387474E-01 -0.43499073E-02
   11    4   -0.70511121E-04  0.71272776E-02
   12    4   -0.29633231E-01 -0.17383626E-01
   13    4   -0.69222803E-03 -0.14227133E-01
   14    4   -0.14565363E-01 -0.14597287E-01
   15    4   -0.12407257E-02 -0.17558911E-01
   16    4   -0.29035442E-01  0.62993322E-02
    1    5   -0.18451121E+00 -0.37619487E-02
    2    5   -0.98948837E-02  0.15068563E-01
    3    5    0.17595405E+00 -0.50403487E-03
    4    5    0.98966620E-03 -0.25127066E-01
    5    5    0.13285348E+00  0.64594676E-17
    6    5   -0.11166292E-04 -0.81588350E-06
    7    5    0.17514618E+00 -0.39397122E-02
    8    5    0.32529156E-02 -0.67313906E-03
    9    5   -0.42349351E+00 -0.40068126E-03
   10    5    0.38100066E-02  0.34415256E-02
   11    5    0.77397465E-01  0.19208559E-02
   12    5    0.22888071E-04 -0.60509708E-03
   13    5    0.77354636E-01 -0.19289005E-02
   14    5   -0.71626603E-03  0.39896198E-04
   15    5    0.77206400E-01 -0.89753569E-04
   16    5   -0.30916175E-02 -0.30252638E-02
    1    6   -0.32320254E-02 -0.62800620E-03
    2    6    0.17590014E+00 -0.26087555E-02
    3    6    0.10173489E-01  0.14907764E-01
    4    6    0.17509193E+00  0.50654388E-02
    5    6   -0.11166292E-04  0.81588350E-06
    6    6    0.13280968E+00  0.67064489E-16
    7    6   -0.82864946E-03 -0.25138673E-01
    8    6   -0.18449617E+00  0.60153988E-02
    9    6   -0.38015987E-02  0.34569805E-02
   10    6   -0.42346570E+00  0.25145165E-02
   11    6   -0.13764500E-04 -0.62776124E-03
   12    6    0.77352371E-01 -0.24143026E-02
   13    6    0.69192466E-03  0.48590540E-04
   14    6    0.77397414E-01  0.14605005E-02
   15    6    0.30699795E-02 -0.30475643E-02
   16    6    0.77231336E-01 -0.46837981E-03
    1    7    0.17606170E+00 -0.32530541E-02
    2    7    0.10447099E-01 -0.35533967E-02
    3    7   -0.17041669E+00 -0.37709059E-02
    4    7   -0.13794269E-04  0.10890780E-04
    5    7    0.17514618E+00  0.39397122E-02
    6    7   -0.82864946E-03  0.25138673E-01
    7    7   -0.22601013E+00  0.86230306E-17
    8    7   -0.11891811E-01 -0.10776057E-01
    9    7    0.76429972E-01  0.34587646E-02
   10    7   -0.78200486E-03 -0.17090745E-02
   11    7   -0.29399221E-01  0.17795920E-01
   12    7    0.17825733E-03  0.71319645E-02
   13    7   -0.14447393E-01  0.14747610E-01
   14    7    0.50139048E-03 -0.14263337E-01
   15    7   -0.29104932E-01 -0.59127946E-02
   16    7    0.99931521E-03 -0.17569700E-01
    1    8   -0.83763311E-05  0.39263161E-05
    2    8    0.17538578E+00 -0.77865935E-02
    3    8   -0.68283080E-03 -0.22360212E-01
    4    8    0.17612690E+00  0.29999846E-04
    5    8    0.32529156E-02  0.67313906E-03
    6    8   -0.18449617E+00 -0.60153988E-02
    7    8   -0.11891811E-01  0.10776057E-01
    8    8    0.13286986E+00  0.14007064E-16
    9    8    0.20844282E-02 -0.94699143E-03
   10    8    0.76396217E-01  0.42751369E-02
   11    8    0.14206303E-01  0.57367634E-03
   12    8   -0.14692848E-01  0.14632658E-01
   13    8   -0.72709167E-02  0.73734029E-04
   14    8   -0.29561843E-01  0.17443953E-01
   15    8    0.17412813E-01  0.12614641E-02
   16    8   -0.29138463E-01 -0.62430168E-02
    1    9    0.76466093E-01  0.37233276E-02
    2    9   -0.54714442E-02 -0.49122348E-02
    3    9    0.76166559E-01 -0.32273346E-03
    4    9    0.75628377E-03  0.17096519E-02
    5    9   -0.42349351E+00  0.40068126E-03
    6    9   -0.38015987E-02 -0.34569805E-02
    7    9    0.76429972E-01 -0.34587646E-02
    8    9    0.20844282E-02  0.94699143E-03
    9    9    0.84119608E-01  0.12938526E-15
   10    9   -0.66798942E-05 -0.10054789E-06
   11    9   -0.27943694E+00 -0.15444246E-01
   12    9   -0.11552104E-01 -0.67563243E-04
   13    9    0.22992076E+00 -0.21044734E-01
   14    9    0.80204763E-02 -0.76783759E-02
   15    9    0.22981699E+00  0.83078144E-02
   16    9   -0.22102039E-01  0.22107932E-02
    1   10   -0.20497412E-02  0.95170058E-03
    2   10    0.76218246E-01 -0.65070133E-03
    3   10    0.53907895E-02 -0.49677953E-02
    4   10    0.76387474E-01  0.43499073E-02
    5   10    0.38100066E-02 -0.34415256E-02
    6   10   -0.42346570E+00 -0.25145165E-02
    7   10   -0.78200486E-03  0.17090745E-02
    8   10    0.76396217E-01 -0.42751369E-02
    9   10   -0.66798942E-05  0.10054789E-06
   10   10    0.84099731E-01  0.51158511E-16
   11   10    0.11567336E-01 -0.92312146E-04
   12   10   -0.27942346E+00  0.15900532E-01
   13   10   -0.80176735E-02 -0.76673110E-02
   14   10    0.22991629E+00  0.20869222E-01
   15   10    0.22107741E-01  0.21541071E-02
   16   10    0.22979135E+00 -0.87965922E-02
    1   11   -0.14509972E-01  0.14694727E-01
    2   11   -0.16567823E-01  0.82860771E-02
    3   11   -0.29398967E-01  0.55253553E-04
    4   11   -0.70511121E-04 -0.71272776E-02
    5   11    0.77397465E-01 -0.19208559E-02
    6   11   -0.13764500E-04  0.62776124E-03
    7   11   -0.29399221E-01 -0.17795920E-01
    8   11    0.14206303E-01 -0.57367634E-03
    9   11   -0.27943694E+00  0.15444246E-01
   10   11    0.11567336E-01  0.92312146E-04
   11   11    0.84098147E-01 -0.48111497E-16
   12   11   -0.58444901E-05 -0.19393874E-05
   13   11    0.22980516E+00 -0.86390951E-02
   14   11    0.22011367E-01  0.21339001E-02
   15   11    0.22993643E+00  0.20707464E-01
   16   11   -0.81299384E-02 -0.77157626E-02
    1   12   -0.14172043E-01 -0.52084491E-03
    2   12   -0.29397759E-01  0.25022973E-03
    3   12    0.16658091E-01  0.80776077E-02
    4   12   -0.29633231E-01  0.17383626E-01
    5   12    0.22888071E-04  0.60509708E-03
    6   12    0.77352371E-01  0.24143026E-02
    7   12    0.17825733E-03 -0.71319645E-02
    8   12   -0.14692848E-01 -0.14632658E-01
    9   12   -0.11552104E-01  0.67563243E-04
   10   12   -0.27942346E+00 -0.15900532E-01
   11   12   -0.58444901E-05  0.19393874E-05
   12   12    0.84143855E-01  0.45782173E-16
   13   12   -0.22003524E-01  0.21232730E-02
   14   12    0.22979848E+00  0.88183263E-02
   15   12    0.81292352E-02 -0.77254577E-02
   16   12    0.22992695E+00 -0.20829235E-01
    1   13   -0.29458159E-01  0.17635112E-01
    2   13    0.81694981E-02 -0.16911643E-01
    3   13   -0.29253356E-01  0.57394448E-04
    4   13   -0.69222803E-03  0.14227133E-01
    5   13    0.77354636E-01  0.19289005E-02
    6   13    0.69192466E-03 -0.48590540E-04
    7   13   -0.14447393E-01 -0.14747610E-01
    8   13   -0.72709167E-02 -0.73734029E-04
    9   13    0.22992076E+00  0.21044734E-01
   10   13   -0.80176735E-02  0.76673110E-02
   11   13    0.22980516E+00  0.86390951E-02
   12   13   -0.22003524E-01 -0.21232730E-02
   13   13   -0.11987653E+00  0.83545704E-17
   14   13    0.21022710E-04 -0.51728735E-05
   15   13   -0.40982033E+00  0.17002768E-01
   16   13   -0.97880868E-02  0.34104749E-04
    1   14    0.72712926E-02 -0.10338172E-03
    2   14   -0.29207370E-01  0.31317184E-03
    3   14   -0.84047573E-02 -0.16797569E-01
    4   14   -0.14565363E-01  0.14597287E-01
    5   14   -0.71626603E-03 -0.39896198E-04
    6   14    0.77397414E-01 -0.14605005E-02
    7   14    0.50139048E-03  0.14263337E-01
    8   14   -0.29561843E-01 -0.17443953E-01
    9   14    0.80204763E-02  0.76783759E-02
   10   14    0.22991629E+00 -0.20869222E-01
   11   14    0.22011367E-01 -0.21339001E-02
   12   14    0.22979848E+00 -0.88183263E-02
   13   14    0.21022710E-04  0.51728735E-05
   14   14   -0.11995655E+00  0.18720042E-16
   15   14    0.98168953E-02  0.23090817E-04
   16   14   -0.40988296E+00 -0.16448520E-01
    1   15   -0.29143285E-01 -0.61104592E-02
    2   15   -0.14477269E-01 -0.14330087E-01
    3   15   -0.15075253E-01 -0.55933610E-04
    4   15   -0.12407257E-02  0.17558911E-01
    5   15    0.77206400E-01  0.89753569E-04
    6   15    0.30699795E-02  0.30475643E-02
    7   15   -0.29104932E-01  0.59127946E-02
    8   15    0.17412813E-01 -0.12614641E-02
    9   15    0.22981699E+00 -0.83078144E-02
   10   15    0.22107741E-01 -0.21541071E-02
   11   15    0.22993643E+00 -0.20707464E-01
   12   15    0.81292352E-02  0.77254577E-02
   13   15   -0.40982033E+00 -0.17002768E-01
   14   15    0.98168953E-02 -0.23090817E-04
   15   15   -0.11985437E+00 -0.24038202E-16
   16   15    0.17151540E-04  0.15991724E-05
    1   16   -0.17413072E-01 -0.11909413E-02
    2   16   -0.15051537E-01  0.19899383E-03
    3   16    0.14309092E-01 -0.14490725E-01
    4   16   -0.29035442E-01 -0.62993322E-02
    5   16   -0.30916175E-02  0.30252638E-02
    6   16    0.77231336E-01  0.46837981E-03
    7   16    0.99931521E-03  0.17569700E-01
    8   16   -0.29138463E-01  0.62430168E-02
    9   16   -0.22102039E-01 -0.22107932E-02
   10   16    0.22979135E+00  0.87965922E-02
   11   16   -0.81299384E-02  0.77157626E-02
   12   16    0.22992695E+00  0.20829235E-01
   13   16   -0.97880868E-02 -0.34104749E-04
   14   16   -0.40988296E+00  0.16448520E-01
   15   16    0.17151540E-04 -0.15991724E-05
   16   16   -0.11989582E+00 -0.14086915E-16

   -1    1   -1
    1    1    0.10632460E+00  0.36200996E-16
    2    1   -0.43025732E-03  0.13579323E-01
    3    1   -0.35448220E-01  0.13930014E-01
    4    1    0.12163695E-01 -0.11689629E-01
    5    1   -0.35115289E-01 -0.14325741E-01
    6    1   -0.14050046E-01  0.39461805E-04
    7    1   -0.36856123E-01 -0.87804651E-03
    8    1    0.26669643E-04  0.15601540E-04
    9    1    0.77369571E-01 -0.13025740E-02
   10    1    0.45834473E-03 -0.93671222E-03
   11    1   -0.42342428E+00 -0.29588555E-02
   12    1   -0.63770448E-02  0.48625216E-02
   13    1    0.77183461E-01  0.54329013E-03
   14    1    0.35590295E-02 -0.32868465E-02
   15    1    0.77384401E-01  0.24188537E-02
   16    1    0.11235163E-02 -0.24920724E-03
    1    2   -0.43025732E-03 -0.13579323E-01
    2    2    0.10634272E+00  0.45169725E-17
    3    2   -0.38631063E-04 -0.19378631E-04
    4    2   -0.35168903E-01 -0.14420667E-01
    5    2   -0.12480798E-01  0.12595643E-01
    6    2   -0.36473114E-01 -0.58308336E-03
    7    2    0.13720445E-01  0.10864910E-02
    8    2   -0.35512852E-01  0.13729841E-01
    9    2   -0.43766166E-03  0.76271905E-02
   10    2   -0.29598985E-01  0.17199789E-01
   11    2   -0.50402070E-03 -0.32200558E-02
   12    2    0.76309187E-01  0.49570354E-02
   13    2    0.13929244E-02 -0.16914430E-01
   14    2   -0.29328049E-01 -0.66429283E-02
   15    2    0.44521715E-03 -0.14044180E-01
   16    2   -0.14995384E-01  0.14397627E-01
    1    3   -0.35448220E-01 -0.13930014E-01
    2    3   -0.38631063E-04  0.19378631E-04
    3    3    0.10629844E+00 -0.67641761E-17
    4    3   -0.13756186E-01  0.75371523E-03
    5    3   -0.36452229E-01 -0.68312083E-04
    6    3    0.12263688E-01  0.12820930E-01
    7    3   -0.35522733E-01  0.13577439E-01
    8    3    0.49924605E-03 -0.13578860E-01
    9    3   -0.29412563E-01 -0.17549416E-01
   10    3    0.33636870E-03  0.76406067E-02
   11    3    0.76415514E-01 -0.41079030E-02
   12    3    0.53340691E-03 -0.32002550E-02
   13    3   -0.29387638E-01  0.62733143E-02
   14    3   -0.11832322E-02 -0.16932976E-01
   15    3   -0.14838423E-01 -0.14540823E-01
   16    3   -0.31942840E-03 -0.14018462E-01
    1    4    0.12163695E-01  0.11689629E-01
    2    4   -0.35168903E-01  0.14420667E-01
    3    4   -0.13756186E-01 -0.75371523E-03
    4    4    0.10635811E+00  0.10745856E-16
    5    4   -0.18517705E-03 -0.14149827E-01
    6    4   -0.35081313E-01 -0.14294948E-01
    7    4   -0.12363431E-04  0.24539203E-04
    8    4   -0.36878108E-01 -0.18137880E-03
    9    4    0.16503108E-01 -0.86981812E-02
   10    4   -0.29287789E-01 -0.36726743E-03
   11    4    0.57052619E-02  0.64666809E-02
   12    4    0.76070284E-01 -0.12054141E-03
   13    4    0.14294632E-01  0.14165141E-01
   14    4   -0.15423223E-01 -0.14783744E-03
   15    4   -0.84012035E-02  0.16257336E-01
   16    4   -0.29506916E-01  0.28609203E-03
    1    5   -0.35115289E-01  0.14325741E-01
    2    5   -0.12480798E-01 -0.12595643E-01
    3    5   -0.36452229E-01  0.68312083E-04
    4    5   -0.18517705E-03  0.14149827E-01
    5    5    0.10633472E+00 -0.30599523E-16
    6    5    0.22287770E-04 -0.13665984E-04
    7    5   -0.34988598E-01 -0.14522638E-01
    8    5    0.14047558E-01 -0.20617486E-03
    9    5   -0.14781680E-01  0.14539461E-01
   10    5    0.14175813E-01  0.48368675E-03
   11    5    0.76400694E-01  0.42872282E-02
   12    5    0.25436845E-02 -0.66237717E-03
   13    5   -0.29198863E-01 -0.63701748E-02
   14    5    0.17245832E-01  0.12262151E-02
   15    5   -0.29517702E-01  0.17503642E-01
   16    5   -0.73751723E-02 -0.13594029E-03
    1    6   -0.14050046E-01 -0.39461805E-04
    2    6   -0.36473114E-01  0.58308336E-03
    3    6    0.12263688E-01 -0.12820930E-01
    4    6   -0.35081313E-01  0.14294948E-01
    5    6    0.22287770E-04  0.13665984E-04
    6    6    0.10629178E+00 -0.21639336E-16
    7    6    0.88480715E-04  0.14160248E-01
    8    6   -0.35274058E-01 -0.13902762E-01
    9    6   -0.14146980E-01  0.56698799E-03
   10    6   -0.14816355E-01 -0.14459471E-01
   11    6   -0.25377030E-02 -0.63072150E-03
   12    6    0.76351767E-01 -0.47878175E-02
   13    6   -0.17212368E-01  0.13469135E-02
   14    6   -0.29192299E-01  0.65241852E-02
   15    6    0.73588121E-02 -0.20386312E-03
   16    6   -0.29645270E-01 -0.17261411E-01
    1    7   -0.36856123E-01  0.87804651E-03
    2    7    0.13720445E-01 -0.10864910E-02
    3    7   -0.35522733E-01 -0.13577439E-01
    4    7   -0.12363431E-04 -0.24539203E-04
    5    7   -0.34988598E-01  0.14522638E-01
    6    7    0.88480715E-04 -0.14160248E-01
    7    7    0.10628933E+00  0.65153827E-16
    8    7   -0.11929110E-01  0.11907274E-01
    9    7   -0.29311093E-01  0.70659195E-03
   10    7   -0.16601518E-01 -0.85212057E-02
   11    7    0.76017550E-01 -0.87811169E-03
   12    7   -0.56304524E-02  0.65429647E-02
   13    7   -0.15389013E-01  0.31162539E-03
   14    7   -0.14110910E-01  0.14325739E-01
   15    7   -0.29535410E-01  0.12202076E-03
   16    7    0.85867582E-02  0.16148237E-01
    1    8    0.26669643E-04 -0.15601540E-04
    2    8   -0.35512852E-01 -0.13729841E-01
    3    8    0.49924605E-03  0.13578860E-01
    4    8   -0.36878108E-01  0.18137880E-03
    5    8    0.14047558E-01  0.20617486E-03
    6    8   -0.35274058E-01  0.13902762E-01
    7    8   -0.11929110E-01 -0.11907274E-01
    8    8    0.10626178E+00  0.19021142E-17
    9    8   -0.45604456E-03 -0.93060344E-03
   10    8    0.77398376E-01  0.18633224E-02
   11    8    0.63337160E-02  0.49076071E-02
   12    8   -0.42343392E+00  0.57427649E-03
   13    8   -0.35334992E-02 -0.33023079E-02
   14    8    0.77167526E-01 -0.75158918E-04
   15    8   -0.11456090E-02 -0.26673133E-03
   16    8    0.77373595E-01 -0.20095322E-02
    1    9    0.77369571E-01  0.13025740E-02
    2    9   -0.43766166E-03 -0.76271905E-02
    3    9   -0.29412563E-01  0.17549416E-01
    4    9    0.16503108E-01  0.86981812E-02
    5    9   -0.14781680E-01 -0.14539461E-01
    6    9   -0.14146980E-01 -0.56698799E-03
    7    9   -0.29311093E-01 -0.70659195E-03
    8    9   -0.45604456E-03  0.93060344E-03
    9    9    0.18732362E+00 -0.15609411E-16
   10    9    0.23996817E-04 -0.96915167E-05
   11    9   -0.49279080E-01  0.57416581E-02
   12    9    0.53246461E-02 -0.20947672E-04
   13    9   -0.49298775E-01 -0.56551781E-02
   14    9   -0.87005973E-05  0.53115894E-02
   15    9   -0.49813861E-01  0.11752446E-03
   16    9   -0.42658353E-02 -0.42581280E-02
    1   10    0.45834473E-03  0.93671222E-03
    2   10   -0.29598985E-01 -0.17199789E-01
    3   10    0.33636870E-03 -0.76406067E-02
    4   10   -0.29287789E-01  0.36726743E-03
    5   10    0.14175813E-01 -0.48368675E-03
    6   10   -0.14816355E-01  0.14459471E-01
    7   10   -0.16601518E-01  0.85212057E-02
    8   10    0.77398376E-01 -0.18633224E-02
    9   10    0.23996817E-04  0.96915167E-05
   10   10    0.18726246E+00 -0.10069742E-15
   11   10   -0.52943008E-02 -0.11919560E-04
   12   10   -0.49325224E-01 -0.56666471E-02
   13   10    0.20091176E-04  0.53291861E-02
   14   10   -0.49299020E-01  0.57001078E-02
   15   10    0.42402633E-02 -0.42722737E-02
   16   10   -0.49806912E-01 -0.45575194E-05
    1   11   -0.42342428E+00  0.29588555E-02
    2   11   -0.50402070E-03  0.32200558E-02
    3   11    0.76415514E-01  0.41079030E-02
    4   11    0.57052619E-02 -0.64666809E-02
    5   11    0.76400694E-01 -0.42872282E-02
    6   11   -0.25377030E-02  0.63072150E-03
    7   11    0.76017550E-01  0.87811169E-03
    8   11    0.63337160E-02 -0.49076071E-02
    9   11   -0.49279080E-01 -0.57416581E-02
   10   11   -0.52943008E-02  0.11919560E-04
   11   11    0.18729251E+00 -0.77599260E-17
   12   11    0.34734516E-04  0.20411881E-04
   13   11   -0.49825148E-01 -0.27116256E-04
   14   11    0.42733080E-02 -0.42381042E-02
   15   11   -0.49290559E-01  0.57319430E-02
   16   11    0.32557101E-04  0.53655728E-02
    1   12   -0.63770448E-02 -0.48625216E-02
    2   12    0.76309187E-01 -0.49570354E-02
    3   12    0.53340691E-03  0.32002550E-02
    4   12    0.76070284E-01  0.12054141E-03
    5   12    0.25436845E-02  0.66237717E-03
    6   12    0.76351767E-01  0.47878175E-02
    7   12   -0.56304524E-02 -0.65429647E-02
    8   12   -0.42343392E+00 -0.57427649E-03
    9   12    0.53246461E-02  0.20947672E-04
   10   12   -0.49325224E-01  0.56666471E-02
   11   12    0.34734516E-04 -0.20411881E-04
   12   12    0.18723814E+00 -0.27052424E-16
   13   12   -0.42659408E-02 -0.42394794E-02
   14   12   -0.49806477E-01 -0.14845320E-04
   15   12   -0.32531590E-04  0.53453192E-02
   16   12   -0.49297856E-01 -0.57087652E-02
    1   13    0.77183461E-01 -0.54329013E-03
    2   13    0.13929244E-02  0.16914430E-01
    3   13   -0.29387638E-01 -0.62733143E-02
    4   13    0.14294632E-01 -0.14165141E-01
    5   13   -0.29198863E-01  0.63701748E-02
    6   13   -0.17212368E-01 -0.13469135E-02
    7   13   -0.15389013E-01 -0.31162539E-03
    8   13   -0.35334992E-02  0.33023079E-02
    9   13   -0.49298775E-01  0.56551781E-02
   10   13    0.20091176E-04 -0.53291861E-02
   11   13   -0.49825148E-01  0.27116256E-04
   12   13   -0.42659408E-02  0.42394794E-02
   13   13    0.18728663E+00 -0.72927626E-16
   14   13   -0.13448482E-04 -0.29762398E-04
   15   13   -0.49318763E-01 -0.56144720E-02
   16   13    0.53257406E-02  0.15667439E-05
    1   14    0.35590295E-02  0.32868465E-02
    2   14   -0.29328049E-01  0.66429283E-02
    3   14   -0.11832322E-02  0.16932976E-01
    4   14   -0.15423223E-01  0.14783744E-03
    5   14    0.17245832E-01 -0.12262151E-02
    6   14   -0.29192299E-01 -0.65241852E-02
    7   14   -0.14110910E-01 -0.14325739E-01
    8   14    0.77167526E-01  0.75158918E-04
    9   14   -0.87005973E-05 -0.53115894E-02
   10   14   -0.49299020E-01 -0.57001078E-02
   11   14    0.42733080E-02  0.42381042E-02
   12   14   -0.49806477E-01  0.14845320E-04
   13   14   -0.13448482E-04  0.29762398E-04
   14   14    0.18734518E+00  0.20228025E-16
   15   14   -0.53478554E-02  0.83141663E-05
   16   14   -0.49293819E-01  0.56986842E-02
    1   15    0.77384401E-01 -0.24188537E-02
    2   15    0.44521715E-03  0.14044180E-01
    3   15   -0.14838423E-01  0.14540823E-01
    4   15   -0.84012035E-02 -0.16257336E-01
    5   15   -0.29517702E-01 -0.17503642E-01
    6   15    0.73588121E-02  0.20386312E-03
    7   15   -0.29535410E-01 -0.12202076E-03
    8   15   -0.11456090E-02  0.26673133E-03
    9   15   -0.49813861E-01 -0.11752446E-03
   10   15    0.42402633E-02  0.42722737E-02
   11   15   -0.49290559E-01 -0.57319430E-02
   12   15   -0.32531590E-04 -0.53453192E-02
   13   15   -0.49318763E-01  0.56144720E-02
   14   15   -0.53478554E-02 -0.83141663E-05
   15   15    0.18728317E+00 -0.12928011E-16
   16   15   -0.44360637E-04  0.28330446E-04
    1   16    0.11235163E-02  0.24920724E-03
    2   16   -0.14995384E-01 -0.14397627E-01
    3   16   -0.31942840E-03  0.14018462E-01
    4   16   -0.29506916E-01 -0.28609203E-03
    5   16   -0.73751723E-02  0.13594029E-03
    6   16   -0.29645270E-01  0.17261411E-01
    7   16    0.85867582E-02 -0.16148237E-01
    8   16    0.77373595E-01  0.20095322E-02
    9   16   -0.42658353E-02  0.42581280E-02
   10   16   -0.49806912E-01  0.45575194E-05
   11   16    0.32557101E-04 -0.53655728E-02
   12   16   -0.49297856E-01  0.57087652E-02
   13   16    0.53257406E-02 -0.15667439E-05
   14   16   -0.49293819E-01 -0.56986842E-02
   15   16   -0.44360637E-04 -0.28330446E-04
   16   16    0.18733638E+00 -0.63039908E-16

   -1    1    0
    1    1    0.13269126E+00 -0.13027952E-16
    2    1    0.27126098E-02  0.20618143E-02
    3    1    0.17595229E+00 -0.17821055E-01
    4    1   -0.99757448E-02  0.11021277E-01
    5    1    0.17575045E+00  0.19967149E-01
    6    1    0.12805230E-03 -0.17047949E-02
    7    1   -0.18371701E+00 -0.34261299E-02
    8    1   -0.43750026E-05  0.86051219E-05
    9    1   -0.29365029E-01 -0.48806061E-03
   10    1   -0.84326844E-02 -0.16526683E-01
   11    1   -0.15380337E-01 -0.11780610E-03
   12    1    0.14323638E-01 -0.14152967E-01
   13    1    0.76047116E-01  0.57986276E-03
   14    1    0.61513234E-02 -0.58429380E-02
   15    1   -0.29449697E-01  0.30591918E-04
   16    1    0.16310579E-01  0.86303073E-02
    1    2    0.27126098E-02 -0.20618143E-02
    2    2   -0.22609131E+00  0.18114284E-16
    3    2   -0.24102558E-05 -0.13995290E-04
    4    2    0.17565247E+00  0.20261955E-01
    5    2   -0.17404779E-02  0.28777571E-02
    6    2   -0.17042261E+00 -0.25616181E-02
    7    2    0.14606870E-02 -0.44298397E-02
    8    2    0.17601279E+00 -0.16856821E-01
    9    2   -0.73695609E-02  0.41162748E-03
   10    2   -0.29366269E-01 -0.17755053E-01
   11    2    0.17122962E-01 -0.88324747E-03
   12    2   -0.29356009E-01  0.62031353E-02
   13    2    0.27468529E-02  0.24792047E-04
   14    2    0.76411490E-01 -0.35852015E-02
   15    2    0.14159875E-01 -0.20638348E-03
   16    2   -0.14643721E-01 -0.14595004E-01
    1    3    0.17595229E+00  0.17821055E-01
    2    3   -0.24102558E-05  0.13995290E-04
    3    3   -0.22601417E+00 -0.22023769E-16
    4    3   -0.13638262E-02 -0.44635802E-02
    5    3   -0.17042611E+00 -0.45480543E-03
    6    3    0.17125866E-02  0.29011753E-02
    7    3    0.17608542E+00 -0.16002872E-01
    8    3   -0.26990253E-02 -0.20596532E-02
    9    3   -0.29571332E-01  0.17382586E-01
   10    3    0.73530249E-02  0.49546158E-03
   11    3   -0.29254085E-01 -0.65222165E-02
   12    3   -0.17086960E-01 -0.10625565E-02
   13    3    0.76345690E-01  0.44888851E-02
   14    3   -0.27671428E-02  0.13050566E-04
   15    3   -0.14845631E-01  0.14412569E-01
   16    3   -0.14210269E-01 -0.33929448E-03
    1    4   -0.99757448E-02 -0.11021277E-01
    2    4    0.17565247E+00 -0.20261955E-01
    3    4   -0.13638262E-02  0.44635802E-02
    4    4    0.13270651E+00  0.23372953E-16
    5    4    0.13291656E-02  0.74796254E-03
    6    4    0.17580666E+00  0.19665754E-01
    7    4   -0.80480125E-05 -0.22243496E-05
    8    4   -0.18375862E+00 -0.29997144E-04
    9    4    0.77477837E-03  0.80303862E-03
   10    4    0.77386539E-01 -0.19543428E-02
   11    4    0.31287244E-02  0.38822939E-02
   12    4    0.77146436E-01 -0.73755279E-04
   13    4   -0.40613535E-02 -0.80552300E-02
   14    4   -0.42342439E+00  0.15092334E-03
   15    4    0.90280875E-04  0.14865961E-02
   16    4    0.77379494E-01  0.19202730E-02
    1    5    0.17575045E+00 -0.19967149E-01
    2    5   -0.17404779E-02 -0.28777571E-02
    3    5   -0.17042611E+00  0.45480543E-03
    4    5    0.13291656E-02 -0.74796254E-03
    5    5   -0.22606230E+00 -0.59006962E-16
    6    5    0.38731100E-04 -0.22718749E-04
    7    5    0.17561698E+00  0.20808460E-01
    8    5   -0.79816413E-04  0.16955029E-02
    9    5   -0.14718421E-01 -0.14603300E-01
   10    5    0.47840568E-03  0.14093266E-01
   11    5   -0.29221178E-01  0.63184883E-02
   12    5    0.12951616E-02  0.17207153E-01
   13    5    0.76431659E-01 -0.42954284E-02
   14    5   -0.72041314E-03  0.25618894E-02
   15    5   -0.29560874E-01 -0.17415516E-01
   16    5   -0.14870714E-03 -0.74391552E-02
    1    6    0.12805230E-03  0.17047949E-02
    2    6   -0.17042261E+00  0.25616181E-02
    3    6    0.17125866E-02 -0.29011753E-02
    4    6    0.17580666E+00 -0.19665754E-01
    5    6    0.38731100E-04  0.22718749E-04
    6    6   -0.22603857E+00 -0.54178595E-16
    7    6   -0.13213480E-02 -0.73635736E-03
    8    6    0.17596083E+00  0.17806619E-01
    9    6   -0.38158648E-03  0.14118015E-01
   10    6   -0.14690923E-01  0.14676656E-01
   11    6   -0.11354493E-02  0.17212424E-01
   12    6   -0.29302352E-01 -0.61083684E-02
   13    6    0.75854226E-03  0.25680819E-02
   14    6    0.76463711E-01  0.38551186E-02
   15    6    0.59817669E-04 -0.74528761E-02
   16    6   -0.29415928E-01  0.17607193E-01
    1    7   -0.18371701E+00  0.34261299E-02
    2    7    0.14606870E-02  0.44298397E-02
    3    7    0.17608542E+00  0.16002872E-01
    4    7   -0.80480125E-05  0.22243496E-05
    5    7    0.17561698E+00 -0.20808460E-01
    6    7   -0.13213480E-02  0.73635736E-03
    7    7    0.13266659E+00 -0.13243646E-17
    8    7    0.97646167E-02 -0.11209439E-01
    9    7    0.77425775E-01  0.10792078E-02
   10    7   -0.74992274E-03  0.80483941E-03
   11    7    0.77170253E-01 -0.91757577E-03
   12    7   -0.30516445E-02  0.39227352E-02
   13    7   -0.42338134E+00  0.50010868E-02
   14    7    0.39674376E-02 -0.80905725E-02
   15    7    0.77319539E-01 -0.29846044E-02
   16    7   -0.10454340E-03  0.15148725E-02
    1    8   -0.43750026E-05 -0.86051219E-05
    2    8    0.17601279E+00  0.16856821E-01
    3    8   -0.26990253E-02  0.20596532E-02
    4    8   -0.18375862E+00  0.29997144E-04
    5    8   -0.79816413E-04 -0.16955029E-02
    6    8    0.17596083E+00 -0.17806619E-01
    7    8    0.97646167E-02  0.11209439E-01
    8    8    0.13261357E+00  0.49596753E-17
    9    8    0.85697803E-02 -0.16456012E-01
   10    8   -0.29377414E-01  0.29565794E-03
   11    8   -0.14216823E-01 -0.14232092E-01
   12    8   -0.15372250E-01  0.65185882E-04
   13    8   -0.61181761E-02 -0.58818847E-02
   14    8    0.76026650E-01 -0.72746408E-04
   15    8   -0.16386310E-01  0.85314037E-02
   16    8   -0.29397316E-01 -0.20821676E-03
    1    9   -0.29365029E-01  0.48806061E-03
    2    9   -0.73695609E-02 -0.41162748E-03
    3    9   -0.29571332E-01 -0.17382586E-01
    4    9    0.77477837E-03 -0.80303862E-03
    5    9   -0.14718421E-01  0.14603300E-01
    6    9   -0.38158648E-03 -0.14118015E-01
    7    9    0.77425775E-01 -0.10792078E-02
    8    9    0.85697803E-02  0.16456012E-01
    9    9   -0.11978806E+00 -0.37285508E-16
   10    9   -0.29963979E-05 -0.86558784E-05
   11    9    0.22998136E+00 -0.58826389E-02
   12    9    0.16909832E-01  0.80478431E-02
   13    9    0.22997532E+00  0.54404675E-02
   14    9    0.80808230E-02  0.16777708E-01
   15    9   -0.40913697E+00  0.78550423E-03
   16    9    0.19789308E-01  0.19705413E-01
    1   10   -0.84326844E-02  0.16526683E-01
    2   10   -0.29366269E-01  0.17755053E-01
    3   10    0.73530249E-02 -0.49546158E-03
    4   10    0.77386539E-01  0.19543428E-02
    5   10    0.47840568E-03 -0.14093266E-01
    6   10   -0.14690923E-01 -0.14676656E-01
    7   10   -0.74992274E-03 -0.80483941E-03
    8   10   -0.29377414E-01 -0.29565794E-03
    9   10   -0.29963979E-05  0.86558784E-05
   10   10   -0.11972963E+00 -0.40787971E-16
   11   10   -0.16888568E-01  0.80750309E-02
   12   10    0.22997922E+00  0.55393407E-02
   13   10   -0.80655448E-02  0.16786709E-01
   14   10    0.22999683E+00 -0.56203674E-02
   15   10   -0.19759418E-01  0.19752957E-01
   16   10   -0.40909278E+00  0.61966416E-04
    1   11   -0.15380337E-01  0.11780610E-03
    2   11    0.17122962E-01  0.88324747E-03
    3   11   -0.29254085E-01  0.65222165E-02
    4   11    0.31287244E-02 -0.38822939E-02
    5   11   -0.29221178E-01 -0.63184883E-02
    6   11   -0.11354493E-02 -0.17212424E-01
    7   11    0.77170253E-01  0.91757577E-03
    8   11   -0.14216823E-01  0.14232092E-01
    9   11    0.22998136E+00  0.58826389E-02
   10   11   -0.16888568E-01 -0.80750309E-02
   11   11    0.84247285E-01 -0.97736737E-17
   12   11   -0.63573560E-05 -0.41306308E-05
   13   11   -0.27872161E+00 -0.18599298E-03
   14   11   -0.17953308E-01  0.18099849E-01
   15   11    0.22996669E+00 -0.58211998E-02
   16   11    0.78630664E-02  0.16712008E-01
    1   12    0.14323638E-01  0.14152967E-01
    2   12   -0.29356009E-01 -0.62031353E-02
    3   12   -0.17086960E-01  0.10625565E-02
    4   12    0.77146436E-01  0.73755279E-04
    5   12    0.12951616E-02 -0.17207153E-01
    6   12   -0.29302352E-01  0.61083684E-02
    7   12   -0.30516445E-02 -0.39227352E-02
    8   12   -0.15372250E-01 -0.65185882E-04
    9   12    0.16909832E-01 -0.80478431E-02
   10   12    0.22997922E+00 -0.55393407E-02
   11   12   -0.63573560E-05  0.41306308E-05
   12   12    0.84204101E-01  0.77379508E-16
   13   12    0.17943993E-01  0.18113913E-01
   14   12   -0.27873473E+00 -0.66717927E-04
   15   12   -0.78591173E-02  0.16711686E-01
   16   12    0.22999027E+00  0.56867568E-02
    1   13    0.76047116E-01 -0.57986276E-03
    2   13    0.27468529E-02 -0.24792047E-04
    3   13    0.76345690E-01 -0.44888851E-02
    4   13   -0.40613535E-02  0.80552300E-02
    5   13    0.76431659E-01  0.42954284E-02
    6   13    0.75854226E-03 -0.25680819E-02
    7   13   -0.42338134E+00 -0.50010868E-02
    8   13   -0.61181761E-02  0.58818847E-02
    9   13    0.22997532E+00 -0.54404675E-02
   10   13   -0.80655448E-02 -0.16786709E-01
   11   13   -0.27872161E+00  0.18599298E-03
   12   13    0.17943993E-01 -0.18113913E-01
   13   13    0.84230104E-01  0.10821938E-16
   14   13   -0.11452519E-05  0.39616736E-05
   15   13    0.23000422E+00  0.52439144E-02
   16   13    0.16707236E-01  0.80073222E-02
    1   14    0.61513234E-02  0.58429380E-02
    2   14    0.76411490E-01  0.35852015E-02
    3   14   -0.27671428E-02 -0.13050566E-04
    4   14   -0.42342439E+00 -0.15092334E-03
    5   14   -0.72041314E-03 -0.25618894E-02
    6   14    0.76463711E-01 -0.38551186E-02
    7   14    0.39674376E-02  0.80905725E-02
    8   14    0.76026650E-01  0.72746408E-04
    9   14    0.80808230E-02 -0.16777708E-01
   10   14    0.22999683E+00  0.56203674E-02
   11   14   -0.17953308E-01 -0.18099849E-01
   12   14   -0.27873473E+00  0.66717927E-04
   13   14   -0.11452519E-05 -0.39616736E-05
   14   14    0.84268530E-01  0.30873633E-16
   15   14   -0.16691705E-01  0.80313753E-02
   16   14    0.22998673E+00 -0.55521420E-02
    1   15   -0.29449697E-01 -0.30591918E-04
    2   15    0.14159875E-01  0.20638348E-03
    3   15   -0.14845631E-01 -0.14412569E-01
    4   15    0.90280875E-04 -0.14865961E-02
    5   15   -0.29560874E-01  0.17415516E-01
    6   15    0.59817669E-04  0.74528761E-02
    7   15    0.77319539E-01  0.29846044E-02
    8   15   -0.16386310E-01 -0.85314037E-02
    9   15   -0.40913697E+00 -0.78550423E-03
   10   15   -0.19759418E-01 -0.19752957E-01
   11   15    0.22996669E+00  0.58211998E-02
   12   15   -0.78591173E-02 -0.16711686E-01
   13   15    0.23000422E+00 -0.52439144E-02
   14   15   -0.16691705E-01 -0.80313753E-02
   15   15   -0.11977133E+00  0.41276394E-16
   16   15   -0.15388093E-04  0.71359969E-05
    1   16    0.16310579E-01 -0.86303073E-02
    2   16   -0.14643721E-01  0.14595004E-01
    3   16   -0.14210269E-01  0.33929448E-03
    4   16    0.77379494E-01 -0.19202730E-02
    5   16   -0.14870714E-03  0.74391552E-02
    6   16   -0.29415928E-01 -0.17607193E-01
    7   16   -0.10454340E-03 -0.15148725E-02
    8   16   -0.29397316E-01  0.20821676E-03
    9   16    0.19789308E-01 -0.19705413E-01
   10   16   -0.40909278E+00 -0.61966416E-04
   11   16    0.78630664E-02 -0.16712008E-01
   12   16    0.22999027E+00 -0.56867568E-02
   13   16    0.16707236E-01 -0.80073222E-02
   14   16    0.22998673E+00  0.55521420E-02
   15   16   -0.15388093E-04 -0.71359969E-05
   16   16   -0.11973286E+00 -0.11818410E-16

   -1    1    1
    1    1    0.10632460E+00  0.32972011E-16
    2    1   -0.43025732E-03  0.13579323E-01
    3    1   -0.35448220E-01  0.13930014E-01
    4    1    0.12163695E-01 -0.11689629E-01
    5    1   -0.35115289E-01 -0.14325741E-01
    6    1   -0.14050046E-01  0.39461805E-04
    7    1   -0.36856123E-01 -0.87804651E-03
    8    1    0.26669643E-04  0.15601540E-04
    9    1    0.77369571E-01 -0.13025740E-02
   10    1    0.45834473E-03 -0.93671222E-03
   11    1   -0.42342428E+00 -0.29588555E-02
   12    1   -0.63770448E-02  0.48625216E-02
   13    1    0.77183461E-01  0.54329013E-03
   14    1    0.35590295E-02 -0.32868465E-02
   15    1    0.77384401E-01  0.24188537E-02
   16    1    0.11235163E-02 -0.24920724E-03
    1    2   -0.43025732E-03 -0.13579323E-01
    2    2    0.10634272E+00  0.45228399E-16
    3    2   -0.38631063E-04 -0.19378631E-04
    4    2   -0.35168903E-01 -0.14420667E-01
    5    2   -0.12480798E-01  0.12595643E-01
    6    2   -0.36473114E-01 -0.58308336E-03
    7    2    0.13720445E-01  0.10864910E-02
    8    2   -0.35512852E-01  0.13729841E-01
    9    2   -0.43766166E-03  0.76271905E-02
   10    2   -0.29598985E-01  0.17199789E-01
   11    2   -0.50402070E-03 -0.32200558E-02
   12    2    0.76309187E-01  0.49570354E-02
   13    2    0.13929244E-02 -0.16914430E-01
   14    2   -0.29328049E-01 -0.66429283E-02
   15    2    0.44521715E-03 -0.14044180E-01
   16    2   -0.14995384E-01  0.14397627E-01
    1    3   -0.35448220E-01 -0.13930014E-01
    2    3   -0.38631063E-04  0.19378631E-04
    3    3    0.10629844E+00  0.33932381E-16
    4    3   -0.13756186E-01  0.75371523E-03
    5    3   -0.36452229E-01 -0.68312083E-04
    6    3    0.12263688E-01  0.12820930E-01
    7    3   -0.35522733E-01  0.13577439E-01
    8    3    0.49924605E-03 -0.13578860E-01
    9    3   -0.29412563E-01 -0.17549416E-01
   10    3    0.33636870E-03  0.76406067E-02
   11    3    0.76415514E-01 -0.41079030E-02
   12    3    0.53340691E-03 -0.32002550E-02
   13    3   -0.29387638E-01  0.62733143E-02
   14    3   -0.11832322E-02 -0.16932976E-01
   15    3   -0.14838423E-01 -0.14540823E-01
   16    3   -0.31942840E-03 -0.14018462E-01
    1    4    0.12163695E-01  0.11689629E-01
    2    4   -0.35168903E-01  0.14420667E-01
    3    4   -0.13756186E-01 -0.75371523E-03
    4    4    0.10635811E+00  0.75191068E-17
    5    4   -0.18517705E-03 -0.14149827E-01
    6    4   -0.35081313E-01 -0.14294948E-01
    7    4   -0.12363431E-04  0.24539203E-04
    8    4   -0.36878108E-01 -0.18137880E-03
    9    4    0.16503108E-01 -0.86981812E-02
   10    4   -0.29287789E-01 -0.36726743E-03
   11    4    0.57052619E-02  0.64666809E-02
   12    4    0.76070284E-01 -0.12054141E-03
   13    4    0.14294632E-01  0.14165141E-01
   14    4   -0.15423223E-01 -0.14783744E-03
   15    4   -0.84012035E-02  0.16257336E-01
   16    4   -0.29506916E-01  0.28609203E-03
    1    5   -0.35115289E-01  0.14325741E-01
    2    5   -0.12480798E-01 -0.12595643E-01
    3    5   -0.36452229E-01  0.68312083E-04
    4    5   -0.18517705E-03  0.14149827E-01
    5    5    0.10633472E+00  0.10107371E-16
    6    5    0.22287770E-04 -0.13665984E-04
    7    5   -0.34988598E-01 -0.14522638E-01
    8    5    0.14047558E-01 -0.20617486E-03
    9    5   -0.14781680E-01  0.14539461E-01
   10    5    0.14175813E-01  0.48368675E-03
   11    5    0.76400694E-01  0.42872282E-02
   12    5    0.25436845E-02 -0.66237717E-03
   13    5   -0.29198863E-01 -0.63701748E-02
   14    5    0.17245832E-01  0.12262151E-02
   15    5   -0.29517702E-01  0.17503642E-01
   16    5   -0.73751723E-02 -0.13594029E-03
    1    6   -0.14050046E-01 -0.39461805E-04
    2    6   -0.36473114E-01  0.58308336E-03
    3    6    0.12263688E-01 -0.12820930E-01
    4    6   -0.35081313E-01  0.14294948E-01
    5    6    0.22287770E-04  0.13665984E-04
    6    6    0.10629178E+00  0.19059394E-16
    7    6    0.88480715E-04  0.14160248E-01
    8    6   -0.35274058E-01 -0.13902762E-01
    9    6   -0.14146980E-01  0.56698799E-03
   10    6   -0.14816355E-01 -0.14459471E-01
   11    6   -0.25377030E-02 -0.63072150E-03
   12    6    0.76351767E-01 -0.47878175E-02
   13    6   -0.17212368E-01  0.13469135E-02
   14    6   -0.29192299E-01  0.65241852E-02
   15    6    0.73588121E-02 -0.20386312E-03
   16    6   -0.29645270E-01 -0.17261411E-01
    1    7   -0.36856123E-01  0.87804651E-03
    2    7    0.13720445E-01 -0.10864910E-02
    3    7   -0.35522733E-01 -0.13577439E-01
    4    7   -0.12363431E-04 -0.24539203E-04
    5    7   -0.34988598E-01  0.14522638E-01
    6    7    0.88480715E-04 -0.14160248E-01
    7    7    0.10628933E+00  0.61923544E-16
    8    7   -0.11929110E-01  0.11907274E-01
    9    7   -0.29311093E-01  0.70659195E-03
   10    7   -0.16601518E-01 -0.85212057E-02
   11    7    0.76017550E-01 -0.87811169E-03
   12    7   -0.56304524E-02  0.65429647E-02
   13    7   -0.15389013E-01  0.31162539E-03
   14    7   -0.14110910E-01  0.14325739E-01
   15    7   -0.29535410E-01  0.12202076E-03
   16    7    0.85867582E-02  0.16148237E-01
    1    8    0.26669643E-04 -0.15601540E-04
    2    8   -0.35512852E-01 -0.13729841E-01
    3    8    0.49924605E-03  0.13578860E-01
    4    8   -0.36878108E-01  0.18137880E-03
    5    8    0.14047558E-01  0.20617486E-03
    6    8   -0.35274058E-01  0.13902762E-01
    7    8   -0.11929110E-01 -0.11907274E-01
    8    8    0.10626178E+00 -0.13250494E-17
    9    8   -0.45604456E-03 -0.93060344E-03
   10    8    0.77398376E-01  0.18633224E-02
   11    8    0.63337160E-02  0.49076071E-02
   12    8   -0.42343392E+00  0.57427649E-03
   13    8   -0.35334992E-02 -0.33023079E-02
   14    8    0.77167526E-01 -0.75158918E-04
   15    8   -0.11456090E-02 -0.26673133E-03
   16    8    0.77373595E-01 -0.20095322E-02
    1    9    0.77369571E-01  0.13025740E-02
    2    9   -0.43766166E-03 -0.76271905E-02
    3    9   -0.29412563E-01  0.17549416E-01
    4    9    0.16503108E-01  0.86981812E-02
    5    9   -0.14781680E-01 -0.14539461E-01
    6    9   -0.14146980E-01 -0.56698799E-03
    7    9   -0.29311093E-01 -0.70659195E-03
    8    9   -0.45604456E-03  0.93060344E-03
    9    9    0.18732362E+00  0.22000923E-16
   10    9    0.23996817E-04 -0.96915167E-05
   11    9   -0.49279080E-01  0.57416581E-02
   12    9    0.53246461E-02 -0.20947672E-04
   13    9   -0.49298775E-01 -0.56551781E-02
   14    9   -0.87005973E-05  0.53115894E-02
   15    9   -0.49813861E-01  0.11752446E-03
   16    9   -0.42658353E-02 -0.42581280E-02
    1   10    0.45834473E-03  0.93671222E-03
    2   10   -0.29598985E-01 -0.17199789E-01
    3   10    0.33636870E-03 -0.76406067E-02
    4   10   -0.29287789E-01  0.36726743E-03
    5   10    0.14175813E-01 -0.48368675E-03
    6   10   -0.14816355E-01  0.14459471E-01
    7   10   -0.16601518E-01  0.85212057E-02
    8   10    0.77398376E-01 -0.18633224E-02
    9   10    0.23996817E-04  0.96915167E-05
   10   10    0.18726246E+00 -0.63101730E-16
   11   10   -0.52943008E-02 -0.11919560E-04
   12   10   -0.49325224E-01 -0.56666471E-02
   13   10    0.20091176E-04  0.53291861E-02
   14   10   -0.49299020E-01  0.57001078E-02
   15   10    0.42402633E-02 -0.42722737E-02
   16   10   -0.49806912E-01 -0.45575194E-05
    1   11   -0.42342428E+00  0.29588555E-02
    2   11   -0.50402070E-03  0.32200558E-02
    3   11    0.76415514E-01  0.41079030E-02
    4   11    0.57052619E-02 -0.64666809E-02
    5   11    0.76400694E-01 -0.42872282E-02
    6   11   -0.25377030E-02  0.63072150E-03
    7   11    0.76017550E-01  0.87811169E-03
    8   11    0.63337160E-02 -0.49076071E-02
    9   11   -0.49279080E-01 -0.57416581E-02
   10   11   -0.52943008E-02  0.11919560E-04
   11   11    0.18729251E+00  0.48594746E-17
   12   11    0.34734516E-04  0.20411881E-04
   13   11   -0.49825148E-01 -0.27116256E-04
   14   11    0.42733080E-02 -0.42381042E-02
   15   11   -0.49290559E-01  0.57319430E-02
   16   11    0.32557101E-04  0.53655728E-02
    1   12   -0.63770448E-02 -0.48625216E-02
    2   12    0.76309187E-01 -0.49570354E-02
    3   12    0.53340691E-03  0.32002550E-02
    4   12    0.76070284E-01  0.12054141E-03
    5   12    0.25436845E-02  0.66237717E-03
    6   12    0.76351767E-01  0.47878175E-02
    7   12   -0.56304524E-02 -0.65429647E-02
    8   12   -0.42343392E+00 -0.57427649E-03
    9   12    0.53246461E-02  0.20947672E-04
   10   12   -0.49325224E-01  0.56666471E-02
   11   12    0.34734516E-04 -0.20411881E-04
   12   12    0.18723814E+00 -0.14434394E-16
   13   12   -0.42659408E-02 -0.42394794E-02
   14   12   -0.49806477E-01 -0.14845320E-04
   15   12   -0.32531590E-04  0.53453192E-02
   16   12   -0.49297856E-01 -0.57087652E-02
    1   13    0.77183461E-01 -0.54329013E-03
    2   13    0.13929244E-02  0.16914430E-01
    3   13   -0.29387638E-01 -0.62733143E-02
    4   13    0.14294632E-01 -0.14165141E-01
    5   13   -0.29198863E-01  0.63701748E-02
    6   13   -0.17212368E-01 -0.13469135E-02
    7   13   -0.15389013E-01 -0.31162539E-03
    8   13   -0.35334992E-02  0.33023079E-02
    9   13   -0.49298775E-01  0.56551781E-02
   10   13    0.20091176E-04 -0.53291861E-02
   11   13   -0.49825148E-01  0.27116256E-04
   12   13   -0.42659408E-02  0.42394794E-02
   13   13    0.18728663E+00 -0.60306842E-16
   14   13   -0.13448482E-04 -0.29762398E-04
   15   13   -0.49318763E-01 -0.56144720E-02
   16   13    0.53257406E-02  0.15667439E-05
    1   14    0.35590295E-02  0.32868465E-02
    2   14   -0.29328049E-01  0.66429283E-02
    3   14   -0.11832322E-02  0.16932976E-01
    4   14   -0.15423223E-01  0.14783744E-03
    5   14    0.17245832E-01 -0.12262151E-02
    6   14   -0.29192299E-01 -0.65241852E-02
    7   14   -0.14110910E-01 -0.14325739E-01
    8   14    0.77167526E-01  0.75158918E-04
    9   14   -0.87005973E-05 -0.53115894E-02
   10   14   -0.49299020E-01 -0.57001078E-02
   11   14    0.42733080E-02  0.42381042E-02
   12   14   -0.49806477E-01  0.14845320E-04
   13   14   -0.13448482E-04  0.29762398E-04
   14   14    0.18734518E+00  0.32851274E-16
   15   14   -0.53478554E-02  0.83141663E-05
   16   14   -0.49293819E-01  0.56986842E-02
    1   15    0.77384401E-01 -0.24188537E-02
    2   15    0.44521715E-03  0.14044180E-01
    3   15   -0.14838423E-01  0.14540823E-01
    4   15   -0.84012035E-02 -0.16257336E-01
    5   15   -0.29517702E-01 -0.17503642E-01
    6   15    0.73588121E-02  0.20386312E-03
    7   15   -0.29535410E-01 -0.12202076E-03
    8   15   -0.11456090E-02  0.26673133E-03
    9   15   -0.49813861E-01 -0.11752446E-03
   10   15    0.42402633E-02  0.42722737E-02
   11   15   -0.49290559E-01 -0.57319430E-02
   12   15   -0.32531590E-04 -0.53453192E-02
   13   15   -0.49318763E-01  0.56144720E-02
   14   15   -0.53478554E-02 -0.83141663E-05
   15   15    0.18728317E+00  0.24675320E-16
   16   15   -0.44360637E-04  0.28330446E-04
    1   16    0.11235163E-02  0.24920724E-03
    2   16   -0.14995384E-01 -0.14397627E-01
    3   16   -0.31942840E-03  0.14018462E-01
    4   16   -0.29506916E-01 -0.28609203E-03
    5   16   -0.73751723E-02  0.13594029E-03
    6   16   -0.29645270E-01  0.17261411E-01
    7   16    0.85867582E-02 -0.16148237E-01
    8   16    0.77373595E-01  0.20095322E-02
    9   16   -0.42658353E-02  0.42581280E-02
   10   16   -0.49806912E-01  0.45575194E-05
   11   16    0.32557101E-04 -0.53655728E-02
   12   16   -0.49297856E-01  0.57087652E-02
   13   16    0.53257406E-02 -0.15667439E-05
   14   16   -0.49293819E-01 -0.56986842E-02
   15   16   -0.44360637E-04 -0.28330446E-04
   16   16    0.18733638E+00 -0.25434772E-16

    0   -1    0
    1    1   -0.22607642E+00  0.35758088E-15
    2    1    0.23675192E-02 -0.22384852E-01
    3    1    0.17536671E+00  0.68644443E-02
    4    1    0.11682224E-01  0.11010862E-01
    5    1   -0.17022295E+00 -0.75509465E-02
    6    1   -0.11925140E-01  0.51238739E-03
    7    1    0.17604237E+00  0.34887771E-02
    8    1   -0.20007693E-04 -0.18384012E-04
    9    1    0.76337125E+00  0.42075200E-02
   10    1    0.19393548E-01 -0.90305261E-02
   11    1   -0.27008461E+00 -0.17240207E-01
   12    1   -0.17397890E-01  0.34818693E-02
   13    1   -0.14865371E+01 -0.28645367E-01
   14    1   -0.46609949E-01  0.39415637E-01
   15    1   -0.14871499E+01 -0.16884614E-01
   16    1   -0.36504627E-01  0.29742044E-01
    1    2    0.23675192E-02  0.22384852E-01
    2    2    0.13282484E+00  0.37715894E-15
    3    2    0.10378896E-04 -0.40505563E-05
    4    2   -0.18449920E+00  0.34101343E-02
    5    2   -0.99116479E-02 -0.15098275E-01
    6    2    0.17590369E+00  0.23796900E-02
    7    2    0.16666773E-02  0.36017434E-02
    8    2    0.17538046E+00  0.78142725E-02
    9    2   -0.13437538E-01  0.86507215E-02
   10    2    0.76353583E+00  0.68235827E-02
   11    2   -0.63918050E-02 -0.88853240E-02
   12    2   -0.14879362E+01 -0.17761054E-01
   13    2    0.17494306E-01  0.16267032E-01
   14    2   -0.14878375E+01 -0.83010699E-02
   15    2   -0.12715652E-01  0.14068516E-01
   16    2   -0.27041470E+00 -0.24566793E-02
    1    3    0.17536671E+00 -0.68644443E-02
    2    3    0.10378896E-04  0.40505563E-05
    3    3    0.13283874E+00  0.40702141E-15
    4    3   -0.17711234E-02  0.35589481E-02
    5    3    0.17595484E+00  0.71896632E-03
    6    3    0.10175566E-01 -0.14908848E-01
    7    3   -0.18438647E+00 -0.78721080E-02
    8    3   -0.25175303E-02  0.22372507E-01
    9    3    0.76355330E+00  0.28927166E-02
   10    3    0.13332445E-01  0.88138882E-02
   11    3   -0.14879461E+01  0.11674021E-02
   12    3    0.64842606E-02 -0.88015904E-02
   13    3   -0.14878293E+01 -0.95621223E-02
   14    3   -0.17698285E-01  0.16072988E-01
   15    3   -0.27038140E+00 -0.40705085E-03
   16    3    0.12557121E-01  0.14209010E-01
    1    4    0.11682224E-01 -0.11010862E-01
    2    4   -0.18449920E+00 -0.34101343E-02
    3    4   -0.17711234E-02 -0.35589481E-02
    4    4    0.13282208E+00  0.41418570E-15
    5    4   -0.77053589E-03  0.25110097E-01
    6    4    0.17512263E+00 -0.50187394E-02
    7    4    0.95871515E-05  0.25021218E-05
    8    4    0.17614112E+00  0.20000195E-03
    9    4    0.76209903E-02  0.22772577E-01
   10    4    0.76330029E+00 -0.21469413E-02
   11    4   -0.36131220E-01 -0.53066460E-01
   12    4   -0.14865708E+01 -0.16338946E-01
   13    4   -0.32011731E-02 -0.18449315E-01
   14    4   -0.27015175E+00 -0.15261337E-01
   15    4   -0.27234819E-01 -0.43097750E-01
   16    4   -0.14871105E+01 -0.73201587E-02
    1    5   -0.17022295E+00  0.75509465E-02
    2    5   -0.99116479E-02  0.15098275E-01
    3    5    0.17595484E+00 -0.71896632E-03
    4    5   -0.77053589E-03 -0.25110097E-01
    5    5   -0.22582780E+00  0.42948651E-15
    6    5   -0.44159244E-05  0.86224992E-05
    7    5    0.17517525E+00 -0.38909608E-02
    8    5    0.11895371E-01 -0.65846461E-03
    9    5   -0.12940525E+01 -0.12211234E-02
   10    5    0.11495778E-01  0.10374280E-01
   11    5    0.89036766E+00 -0.47562189E-02
   12    5   -0.22735559E-01 -0.68589566E-02
   13    5    0.89023543E+00  0.49302725E-02
   14    5   -0.77200107E-02 -0.22413438E-01
   15    5    0.89044052E+00 -0.95553824E-03
   16    5   -0.13226737E-01 -0.12379359E-01
    1    6   -0.11925140E-01 -0.51238739E-03
    2    6    0.17590369E+00 -0.23796900E-02
    3    6    0.10175566E-01  0.14908848E-01
    4    6    0.17512263E+00  0.50187394E-02
    5    6   -0.44159244E-05 -0.86224992E-05
    6    6   -0.22595914E+00  0.40938528E-15
    7    6    0.94338188E-03 -0.25095465E-01
    8    6   -0.17028469E+00 -0.54693586E-02
    9    6   -0.11440832E-01  0.10438938E-01
   10    6   -0.12939819E+01  0.76799929E-02
   11    6    0.22688807E-01 -0.70395165E-02
   12    6    0.89025896E+00 -0.11003751E-02
   13    6    0.75471832E-02 -0.22465695E-01
   14    6    0.89025024E+00 -0.10021205E-01
   15    6    0.13147971E-01 -0.12477755E-01
   16    6    0.89039824E+00 -0.53593709E-02
    1    7    0.17604237E+00 -0.34887771E-02
    2    7    0.16666773E-02 -0.36017434E-02
    3    7   -0.18438647E+00  0.78721080E-02
    4    7    0.95871515E-05 -0.25021218E-05
    5    7    0.17517525E+00  0.38909608E-02
    6    7    0.94338188E-03  0.25095465E-01
    7    7    0.13284476E+00  0.40263552E-15
    8    7   -0.11901072E-01 -0.10804156E-01
    9    7    0.76328191E+00 -0.65614022E-02
   10    7   -0.73583411E-02  0.22846603E-01
   11    7   -0.14861621E+01  0.35665844E-01
   12    7    0.35442976E-01 -0.53519489E-01
   13    7   -0.27001709E+00  0.18535701E-01
   14    7    0.29663258E-02 -0.18491830E-01
   15    7   -0.14868380E+01  0.27402075E-01
   16    7    0.26664379E-01 -0.43469495E-01
    1    8   -0.20007693E-04  0.18384012E-04
    2    8    0.17538046E+00 -0.78142725E-02
    3    8   -0.25175303E-02 -0.22372507E-01
    4    8    0.17614112E+00 -0.20000195E-03
    5    8    0.11895371E-01  0.65846461E-03
    6    8   -0.17028469E+00  0.54693586E-02
    7    8   -0.11901072E-01  0.10804156E-01
    8    8   -0.22586618E+00  0.37370886E-15
    9    8   -0.19322447E-01 -0.91614975E-02
   10    8    0.76338445E+00  0.12811613E-02
   11    8    0.17391224E-01  0.35663070E-02
   12    8   -0.27025218E+00  0.15739595E-01
   13    8    0.46343731E-01  0.39715545E-01
   14    8   -0.14866262E+01  0.19037941E-01
   15    8    0.36349964E-01  0.29939511E-01
   16    8   -0.14872044E+01  0.92940174E-02
    1    9    0.76337125E+00 -0.42075200E-02
    2    9   -0.13437538E-01 -0.86507215E-02
    3    9    0.76355330E+00 -0.28927166E-02
    4    9    0.76209903E-02 -0.22772577E-01
    5    9   -0.12940525E+01  0.12211234E-02
    6    9   -0.11440832E-01 -0.10438938E-01
    7    9    0.76328191E+00  0.65614022E-02
    8    9   -0.19322447E-01  0.91614975E-02
    9    9   -0.11988868E+00  0.56173355E-15
   10    9   -0.45592291E-05 -0.20133310E-05
   11    9   -0.40988398E+00 -0.15886681E-01
   12    9   -0.10193306E-01 -0.10555334E-03
   13    9    0.22990483E+00 -0.21011902E-01
   14    9   -0.80231226E-02 -0.76692371E-02
   15    9    0.22976144E+00 -0.91757835E-02
   16    9   -0.22123632E-01  0.21820041E-02
    1   10    0.19393548E-01  0.90305261E-02
    2   10    0.76353583E+00 -0.68235827E-02
    3   10    0.13332445E-01 -0.88138882E-02
    4   10    0.76330029E+00  0.21469412E-02
    5   10    0.11495778E-01 -0.10374280E-01
    6   10   -0.12939819E+01 -0.76799929E-02
    7   10   -0.73583411E-02 -0.22846603E-01
    8   10    0.76338445E+00 -0.12811613E-02
    9   10   -0.45592291E-05  0.20133310E-05
   10   10   -0.11994131E+00  0.57334623E-15
   11   10    0.10186407E-01 -0.12046418E-03
   12   10   -0.40986201E+00  0.16537743E-01
   13   10    0.79978616E-02 -0.76694429E-02
   14   10    0.22994770E+00  0.20833816E-01
   15   10    0.22125950E-01  0.21380996E-02
   16   10    0.22979385E+00  0.86825431E-02
    1   11   -0.27008461E+00  0.17240207E-01
    2   11   -0.63918050E-02  0.88853240E-02
    3   11   -0.14879461E+01 -0.11674021E-02
    4   11   -0.36131220E-01  0.53066460E-01
    5   11    0.89036766E+00  0.47562189E-02
    6   11    0.22688807E-01  0.70395165E-02
    7   11   -0.14861621E+01 -0.35665844E-01
    8   11    0.17391224E-01 -0.35663070E-02
    9   11   -0.40988398E+00  0.15886681E-01
   10   11    0.10186407E-01  0.12046418E-03
   11   11   -0.11992075E+00  0.58529352E-15
   12   11   -0.45647140E-06  0.24685612E-05
   13   11    0.22980776E+00  0.88566855E-02
   14   11    0.22027034E-01  0.21556428E-02
   15   11    0.22996547E+00  0.20679395E-01
   16   11    0.78736313E-02 -0.77094061E-02
    1   12   -0.17397890E-01 -0.34818693E-02
    2   12   -0.14879362E+01  0.17761054E-01
    3   12    0.64842606E-02  0.88015904E-02
    4   12   -0.14865708E+01  0.16338946E-01
    5   12   -0.22735559E-01  0.68589566E-02
    6   12    0.89025896E+00  0.11003751E-02
    7   12    0.35442976E-01  0.53519489E-01
    8   12   -0.27025218E+00 -0.15739595E-01
    9   12   -0.10193306E-01  0.10555334E-03
   10   12   -0.40986201E+00 -0.16537743E-01
   11   12   -0.45647140E-06 -0.24685612E-05
   12   12   -0.11987794E+00  0.48579435E-15
   13   12   -0.22023132E-01  0.21383426E-02
   14   12    0.22978921E+00 -0.86713475E-02
   15   12   -0.78786973E-02 -0.77025916E-02
   16   12    0.22995212E+00 -0.20806165E-01
    1   13   -0.14865371E+01  0.28645367E-01
    2   13    0.17494306E-01 -0.16267032E-01
    3   13   -0.14878293E+01  0.95621223E-02
    4   13   -0.32011731E-02  0.18449315E-01
    5   13    0.89023543E+00 -0.49302725E-02
    6   13    0.75471832E-02  0.22465695E-01
    7   13   -0.27001709E+00 -0.18535701E-01
    8   13    0.46343731E-01 -0.39715545E-01
    9   13    0.22990483E+00  0.21011902E-01
   10   13    0.79978616E-02  0.76694429E-02
   11   13    0.22980776E+00 -0.88566855E-02
   12   13   -0.22023132E-01 -0.21383426E-02
   13   13    0.84120292E-01  0.56868074E-15
   14   13    0.50860672E-05  0.40608475E-05
   15   13   -0.27939716E+00  0.16207486E-01
   16   13   -0.11299105E-01  0.23288583E-04
    1   14   -0.46609949E-01 -0.39415637E-01
    2   14   -0.14878375E+01  0.83010699E-02
    3   14   -0.17698285E-01 -0.16072988E-01
    4   14   -0.27015175E+00  0.15261337E-01
    5   14   -0.77200107E-02  0.22413438E-01
    6   14    0.89025024E+00  0.10021205E-01
    7   14    0.29663258E-02  0.18491830E-01
    8   14   -0.14866262E+01 -0.19037941E-01
    9   14   -0.80231226E-02  0.76692371E-02
   10   14    0.22994770E+00 -0.20833816E-01
   11   14    0.22027034E-01 -0.21556428E-02
   12   14    0.22978921E+00  0.86713475E-02
   13   14    0.50860672E-05 -0.40608475E-05
   14   14    0.84095712E-01  0.56582969E-15
   15   14    0.11278574E-01  0.64401283E-05
   16   14   -0.27940007E+00 -0.15828325E-01
    1   15   -0.14871499E+01  0.16884614E-01
    2   15   -0.12715652E-01 -0.14068516E-01
    3   15   -0.27038140E+00  0.40705085E-03
    4   15   -0.27234819E-01  0.43097750E-01
    5   15    0.89044052E+00  0.95553824E-03
    6   15    0.13147971E-01  0.12477755E-01
[...]
   10    5    0.20545665E-02  0.14539157E-04  0.61894679E-03  0.10670270E-02 -0.46057940E-03 -0.11686166E-02
   11    5   -0.47320825E-02 -0.27030070E-02  0.10748598E-01  0.10816741E-04  0.10756678E-01 -0.18266841E-02
   12    5   -0.24390515E-02  0.40510209E-05 -0.20450817E-02  0.14509031E-02 -0.12861086E-03 -0.16343411E-02
   13    5   -0.99354674E-02 -0.15351182E-02 -0.24127423E-01  0.31511816E-03  0.73758828E-02 -0.11971404E-02
   14    5    0.14009539E-02  0.24479816E-03  0.16044175E-02 -0.71385352E-03 -0.19253016E-03  0.98976398E-03
   15    5   -0.99882931E-02  0.12216972E-02  0.73143426E-02 -0.18304803E-03 -0.24079750E-01  0.14756274E-02
   16    5   -0.13505679E-02  0.13190468E-03 -0.12618965E-02 -0.13134398E-02  0.77766700E-03  0.16712231E-02
    1    6   -0.23097853E-02  0.39521649E-04 -0.11070528E-02  0.17393751E-04  0.11055129E-02 -0.23807969E-04
    2    6    0.50168502E-02 -0.66992034E-04  0.50090207E-02 -0.65304038E-04  0.53059706E-05 -0.10790804E-04
    3    6    0.26811937E-02 -0.26969424E-02  0.26815302E-02 -0.26959701E-02 -0.10781001E-02 -0.10587876E-02
    4    6    0.52412303E-02  0.26214515E-02  0.38225445E-04 -0.10480022E-02  0.52478234E-02  0.26214303E-02
    5    6   -0.15661541E-05  0.20631604E-04 -0.20236517E-02  0.20430920E-02  0.45041034E-04 -0.19764246E-02
    6    6    0.30149494E-14 -0.42474958E-18 -0.55823401E-14 -0.36369224E-17 -0.27651492E-14  0.24958400E-17
    7    6    0.14334677E-04  0.22944214E-02 -0.17445272E-04  0.11056521E-02  0.15361046E-04  0.22891575E-02
    8    6    0.52059406E-02 -0.26757872E-02  0.45495861E-04  0.10480387E-02 -0.44723389E-04 -0.10483879E-02
    9    6   -0.20554935E-02  0.25237977E-04 -0.61204742E-03  0.10699315E-02  0.45754629E-03 -0.11698354E-02
   10    6    0.44148253E-02 -0.22642841E-02  0.65746653E-02  0.38600465E-03  0.65404788E-02 -0.71030459E-03
   11    6    0.24378938E-02 -0.11385507E-04  0.20534951E-02  0.14371624E-02  0.11713422E-03 -0.16352259E-02
   12    6   -0.47112625E-02  0.27334610E-02  0.10749722E-01 -0.81615256E-04  0.10769872E-01  0.17552788E-02
   13    6   -0.14017937E-02  0.25185109E-03 -0.16079915E-02 -0.70492277E-03  0.19750193E-03  0.98797454E-03
   14    6   -0.99246070E-02  0.15877483E-02 -0.24130123E-01 -0.17489289E-03  0.73821487E-02  0.11543134E-02
   15    6    0.13416819E-02  0.11627763E-03  0.12522717E-02 -0.13226821E-02 -0.75994390E-03  0.16804553E-02
   16    6   -0.99889443E-02 -0.11488781E-02  0.73150546E-02  0.13091278E-03 -0.24093359E-01 -0.13069041E-02
    1    7    0.75485230E-05  0.51749245E-05  0.78733009E-05  0.38189557E-05 -0.49232774E-02  0.59831761E-04
    2    7    0.11104654E-02 -0.20445216E-04  0.23481926E-02  0.42370361E-04 -0.23558456E-02 -0.36092331E-04
    3    7    0.46062792E-04  0.10447415E-02  0.51636922E-02 -0.27296255E-02 -0.51580349E-02  0.27320446E-02
    4    7    0.90654406E-04 -0.19661420E-02 -0.19281728E-02  0.90340228E-04 -0.13925682E-04 -0.24026604E-06
    5    7   -0.52598093E-02 -0.25863196E-02 -0.32831723E-04  0.10481681E-02 -0.52629179E-02 -0.25886883E-02
    6    7   -0.14334677E-04  0.22944214E-02  0.17445272E-04  0.11056521E-02 -0.15361046E-04  0.22891575E-02
    7    7   -0.13986208E-16  0.24952878E-17  0.47195321E-15 -0.24955472E-17  0.13173056E-15 -0.42328817E-18
    8    7   -0.10798910E-02 -0.10565847E-02 -0.10796273E-02 -0.10563443E-02  0.27232625E-02 -0.28162012E-02
    9    7   -0.74077243E-02 -0.11229176E-02 -0.24138806E-01 -0.86273653E-03  0.99278587E-02 -0.15009444E-03
   10    7   -0.77694085E-04  0.87149791E-03 -0.12120222E-02 -0.45511497E-03  0.11968318E-02  0.18248305E-02
   11    7   -0.10798630E-01  0.16115556E-02  0.10817492E-01  0.13312855E-02  0.45395026E-02 -0.31345774E-04
   12    7    0.32855443E-03  0.15128315E-02  0.16437187E-02  0.38229943E-03 -0.26379465E-02  0.27488829E-02
   13    7   -0.65256955E-02  0.12139984E-02  0.65640480E-02  0.10604699E-02 -0.43395171E-02  0.30815855E-04
   14    7   -0.31358106E-03 -0.76270698E-03 -0.69874148E-03 -0.24551554E-03  0.21519109E-02 -0.22458949E-02
   15    7    0.24126722E-01 -0.14613372E-02  0.73693360E-02 -0.13132095E-02  0.99511587E-02 -0.95251587E-04
   16    7   -0.27538774E-03 -0.96946775E-03  0.92562455E-03 -0.19449095E-04 -0.17591014E-02 -0.10652800E-02
    1    8    0.19667837E-02  0.71849190E-04 -0.94018973E-04 -0.19499987E-02  0.20490544E-02  0.20159990E-02
    2    8    0.36199532E-04  0.10465296E-02  0.51668796E-02 -0.27037607E-02  0.36996625E-04  0.10478312E-02
    3    8   -0.38549842E-05  0.11075198E-02 -0.10453504E-04  0.23745533E-02 -0.11254380E-04  0.11090247E-02
    4    8   -0.63498387E-05 -0.48890148E-05 -0.74115501E-05 -0.40675834E-05  0.49212361E-02  0.30880370E-04
    5    8   -0.23117266E-02  0.12552990E-04 -0.11070863E-02  0.36281024E-05  0.11061472E-02 -0.10775041E-04
    6    8   -0.52059406E-02 -0.26757872E-02 -0.45495861E-04  0.10480387E-02  0.44723389E-04 -0.10483879E-02
    7    8    0.10798910E-02 -0.10565847E-02  0.10796273E-02 -0.10563443E-02 -0.27232625E-02 -0.28162012E-02
    8    8    0.72580830E-14 -0.42577607E-18 -0.47184479E-14  0.42562196E-18 -0.65364381E-14  0.71729915E-18
    9    8    0.10470341E-02 -0.16470068E-03 -0.95326125E-03  0.13059954E-02  0.72940092E-03 -0.14795407E-02
   10    8    0.15859222E-01  0.15139854E-02  0.83268263E-02  0.85748383E-03  0.83282579E-02 -0.76101444E-03
   11    8   -0.94124690E-03 -0.15892435E-03  0.20258793E-03  0.89568500E-03 -0.58532309E-03 -0.62638727E-03
   12    8    0.12654831E-01 -0.84225328E-03 -0.12660346E-01 -0.81062626E-03 -0.12700916E-01  0.19123353E-04
   13    8    0.11707445E-02 -0.55211366E-03  0.52027748E-03 -0.11534160E-02  0.19075595E-02  0.18592705E-02
   14    8   -0.83398068E-02 -0.13394799E-02  0.83421006E-02 -0.13562226E-02 -0.15743588E-01  0.11767858E-04
   15    8   -0.12795929E-02  0.93830021E-03  0.20655080E-03 -0.10826511E-02 -0.14964154E-02  0.75728683E-03
   16    8   -0.83315661E-02  0.87510915E-03 -0.15853411E-01  0.15490498E-02  0.83244615E-02  0.74732280E-03
    1    9   -0.15869655E-01 -0.14000508E-02 -0.83334316E-02 -0.79726304E-03 -0.83230802E-02  0.82146608E-03
    2    9   -0.13023448E-02 -0.11814033E-02  0.76643714E-04 -0.14429109E-02 -0.16051629E-02 -0.53423688E-03
    3    9    0.73281133E-02 -0.21026338E-03 -0.99742496E-02  0.12470223E-02  0.24087181E-01 -0.15531865E-02
    4    9   -0.87284167E-04  0.87100755E-03 -0.12046129E-02 -0.46758691E-03  0.11790748E-02  0.18406171E-02
    5    9   -0.44225474E-02  0.22416060E-02 -0.65760935E-02 -0.41740867E-03 -0.65466118E-02  0.67848440E-03
    6    9    0.20554935E-02  0.25237977E-04  0.61204742E-03  0.10699315E-02 -0.45754629E-03 -0.11698354E-02
    7    9    0.74077243E-02 -0.11229176E-02  0.24138806E-01 -0.86273653E-03 -0.99278587E-02 -0.15009444E-03
    8    9   -0.10470341E-02 -0.16470068E-03  0.95326125E-03  0.13059954E-02 -0.72940092E-03 -0.14795407E-02
    9    9   -0.45796700E-15 -0.14814364E-17 -0.10408341E-14  0.56950926E-17  0.85348395E-15 -0.24970085E-17
   10    9   -0.70981605E-03 -0.10728061E-04 -0.10170182E-04 -0.70970555E-03  0.72358597E-03  0.72242957E-03
   11    9   -0.20971095E-05 -0.89013875E-06 -0.14078596E-01 -0.76863098E-03 -0.14081262E-01 -0.86905629E-03
   12    9    0.66292950E-06  0.59836807E-05 -0.70188550E-03 -0.35549221E-05 -0.54260430E-03 -0.36371687E-05
   13    9   -0.14077232E-01  0.79545362E-03  0.29527748E-05 -0.14166578E-05 -0.14079698E-01  0.89385757E-03
   14    9   -0.12033221E-05 -0.69375761E-03  0.74694782E-05 -0.72750847E-06 -0.33285808E-05 -0.53307628E-03
   15    9   -0.14051694E-01  0.25959548E-04 -0.14049114E-01  0.25871144E-04 -0.38718325E-06 -0.14636371E-05
   16    9    0.87035004E-03  0.10206878E-02  0.10226414E-02  0.86789253E-03  0.85578987E-06  0.60467117E-06
    1   10    0.10456301E-02 -0.17221265E-03 -0.94365214E-03  0.13126449E-02  0.71868286E-03 -0.14851712E-02
    2   10    0.73294313E-02  0.11720861E-03 -0.99787472E-02 -0.11215438E-02  0.24109810E-01  0.12447365E-02
    3   10    0.12876605E-02 -0.11975742E-02 -0.93251147E-04 -0.14365488E-02  0.15991655E-02 -0.55196318E-03
    4   10    0.73945015E-02  0.12069002E-02  0.24122663E-01  0.11355331E-02 -0.99373528E-02  0.31905834E-04
    5   10   -0.20545665E-02  0.14539157E-04 -0.61894679E-03  0.10670270E-02  0.46057940E-03 -0.11686166E-02
    6   10   -0.44148253E-02 -0.22642841E-02 -0.65746653E-02  0.38600465E-03 -0.65404788E-02 -0.71030459E-03
    7   10    0.77694085E-04  0.87149791E-03  0.12120222E-02 -0.45511497E-03 -0.11968318E-02  0.18248305E-02
    8   10   -0.15859222E-01  0.15139854E-02 -0.83268263E-02  0.85748383E-03 -0.83282579E-02 -0.76101444E-03
    9   10    0.70981605E-03 -0.10728061E-04  0.10170182E-04 -0.70970555E-03 -0.72358597E-03  0.72242957E-03
   10   10    0.12368578E-14 -0.14816665E-17 -0.66786854E-15  0.56950571E-17 -0.15525775E-14 -0.24969087E-17
   11   10   -0.13930593E-05  0.77608664E-05  0.70230023E-03 -0.47730707E-05  0.54113696E-03 -0.44643185E-05
   12   10    0.67682606E-06 -0.55021592E-06 -0.14077836E-01  0.79145637E-03 -0.14078367E-01  0.89085172E-03
   13   10    0.18673639E-05 -0.69352174E-03 -0.59518406E-05 -0.45854870E-06  0.16204274E-05 -0.53384519E-03
   14   10   -0.14077805E-01 -0.78490758E-03  0.26658833E-05 -0.65250160E-06 -0.14080891E-01 -0.88394234E-03
   15   10   -0.86813498E-03  0.10229636E-02 -0.10204727E-02  0.86986736E-03 -0.14218714E-06 -0.29923335E-06
   16   10   -0.14050812E-01  0.31615364E-05 -0.14050207E-01  0.26930652E-05 -0.51241902E-05 -0.66027614E-06
    1   11   -0.12650598E-01  0.91373418E-03  0.12663026E-01  0.73982522E-03  0.12698796E-01 -0.90763739E-04
    2   11    0.14541944E-02 -0.19645298E-02  0.52951026E-06 -0.24858057E-02  0.15989241E-02  0.26224502E-04
    3   11    0.10763924E-01  0.41759811E-05 -0.47139591E-02 -0.26855454E-02 -0.10755660E-01  0.18635645E-02
    4   11    0.30918045E-03  0.15171319E-02  0.16382842E-02  0.40361021E-03 -0.26730665E-02  0.27151958E-02
    5   11    0.47320825E-02 -0.27030070E-02 -0.10748598E-01  0.10816741E-04 -0.10756678E-01 -0.18266841E-02
    6   11   -0.24378938E-02 -0.11385507E-04 -0.20534951E-02  0.14371624E-02 -0.11713422E-03 -0.16352259E-02
    7   11    0.10798630E-01  0.16115556E-02 -0.10817492E-01  0.13312855E-02 -0.45395026E-02 -0.31345774E-04
    8   11    0.94124690E-03 -0.15892435E-03 -0.20258793E-03  0.89568500E-03  0.58532309E-03 -0.62638727E-03
    9   11    0.20971095E-05 -0.89013875E-06  0.14078596E-01 -0.76863098E-03  0.14081262E-01 -0.86905629E-03
   10   11    0.13930593E-05  0.77608664E-05 -0.70230023E-03 -0.47730707E-05 -0.54113696E-03 -0.44643185E-05
   11   11    0.86389229E-15 -0.14808903E-17  0.50306981E-15  0.14808966E-17 -0.41980308E-15 -0.46799262E-17
   12   11    0.71059289E-03 -0.94165075E-05 -0.10013055E-04  0.71040435E-03  0.72304371E-03 -0.72238392E-03
   13   11   -0.14049605E-01 -0.83812646E-05  0.14052214E-01  0.88926562E-05 -0.10636250E-05  0.68797675E-06
   14   11   -0.86363937E-03  0.10230324E-02  0.10172083E-02 -0.87049716E-03 -0.61261703E-06 -0.93388199E-06
   15   11   -0.14078016E-01 -0.77443437E-03  0.23693939E-05  0.35739586E-05  0.14081717E-01  0.87447041E-03
   16   11    0.93542462E-05 -0.69065743E-03  0.75103833E-05 -0.88219680E-06 -0.75993971E-05  0.53092925E-03
    1   12   -0.94222755E-03 -0.15365496E-03  0.20732052E-03  0.89465104E-03 -0.58893600E-03 -0.62258527E-03
    2   12    0.10763769E-01 -0.12380140E-03 -0.46856999E-02  0.27388065E-02 -0.10776823E-01 -0.17438684E-02
    3   12   -0.14761022E-02 -0.19473737E-02 -0.27931467E-04 -0.24848891E-02 -0.15983013E-02  0.43228777E-04
    4   12    0.10816711E-01 -0.14712462E-02 -0.10796229E-01 -0.14716726E-02 -0.45400377E-02 -0.27445331E-04
    5   12    0.24390515E-02  0.40510209E-05  0.20450817E-02  0.14509031E-02  0.12861086E-03 -0.16343411E-02
    6   12    0.47112625E-02  0.27334610E-02 -0.10749722E-01 -0.81615256E-04 -0.10769872E-01  0.17552788E-02
    7   12   -0.32855443E-03  0.15128315E-02 -0.16437187E-02  0.38229943E-03  0.26379465E-02  0.27488829E-02
    8   12   -0.12654831E-01 -0.84225328E-03  0.12660346E-01 -0.81062626E-03  0.12700916E-01  0.19123353E-04
    9   12   -0.66292950E-06  0.59836807E-05  0.70188550E-03 -0.35549221E-05  0.54260430E-03 -0.36371687E-05
   10   12   -0.67682606E-06 -0.55021592E-06  0.14077836E-01  0.79145637E-03  0.14078367E-01  0.89085172E-03
   11   12   -0.71059289E-03 -0.94165075E-05  0.10013055E-04  0.71040435E-03 -0.72304371E-03 -0.72238392E-03
   12   12   -0.66266437E-15 -0.14806583E-17 -0.13912482E-14  0.14806918E-17  0.82225893E-15 -0.46800297E-17
   13   12    0.86287274E-03  0.10237403E-02 -0.10159443E-02 -0.87125977E-03 -0.23786510E-06 -0.93001961E-06
   14   12   -0.14051342E-01 -0.29890638E-05  0.14050272E-01  0.37193988E-05  0.16705027E-05  0.58720635E-06
   15   12   -0.91751908E-05 -0.69075729E-03 -0.85946134E-05 -0.12090043E-05  0.83025834E-05  0.53006573E-03
   16   12   -0.14080888E-01  0.78156520E-03 -0.14056738E-05 -0.11810806E-06  0.14077871E-01 -0.88069122E-03
    1   13    0.83462167E-02  0.12846128E-02 -0.83313480E-02  0.14110316E-02  0.15743211E-01 -0.11325281E-03
    2   13   -0.76238786E-03  0.13912894E-02  0.24706737E-03  0.13025925E-02 -0.10170486E-02  0.13691616E-03
    3   13   -0.24136418E-01  0.38509674E-03 -0.99583333E-02 -0.14955512E-02 -0.73725255E-02  0.12125106E-02
    4   13   -0.30609623E-03 -0.76673321E-03 -0.69376529E-03 -0.25364888E-03  0.21798963E-02 -0.22200733E-02
    5   13    0.99354674E-02 -0.15351182E-02  0.24127423E-01  0.31511816E-03 -0.73758828E-02 -0.11971404E-02
    6   13    0.14017937E-02  0.25185109E-03  0.16079915E-02 -0.70492277E-03 -0.19750193E-03  0.98797454E-03
    7   13    0.65256955E-02  0.12139984E-02 -0.65640480E-02  0.10604699E-02  0.43395171E-02  0.30815855E-04
    8   13   -0.11707445E-02 -0.55211366E-03 -0.52027748E-03 -0.11534160E-02 -0.19075595E-02  0.18592705E-02
    9   13    0.14077232E-01  0.79545362E-03 -0.29527748E-05 -0.14166578E-05  0.14079698E-01  0.89385757E-03
   10   13   -0.18673639E-05 -0.69352174E-03  0.59518406E-05 -0.45854870E-06 -0.16204274E-05 -0.53384519E-03
   11   13    0.14049605E-01 -0.83812646E-05 -0.14052214E-01  0.88926562E-05  0.10636250E-05  0.68797675E-06
   12   13   -0.86287274E-03  0.10237403E-02  0.10159443E-02 -0.87125977E-03  0.23786510E-06 -0.93001961E-06
   13   13   -0.36082248E-15 -0.24969903E-17  0.21510571E-15  0.24969330E-17  0.83266727E-16 -0.14818899E-17
   14   13    0.70810148E-03 -0.11891129E-04 -0.11036729E-04  0.70858927E-03 -0.72381362E-03  0.72273414E-03
   15   13   -0.32810602E-05  0.27357394E-05 -0.14075998E-01  0.80786739E-03  0.14079657E-01 -0.90638479E-03
   16   13   -0.43080532E-06  0.92269214E-05 -0.68784120E-03  0.10961243E-05  0.52828090E-03 -0.14921630E-05
    1   14    0.11662815E-02 -0.55902949E-03  0.51403798E-03 -0.11569875E-02  0.19191854E-02  0.18471274E-02
    2   14   -0.24137672E-01 -0.97156163E-04 -0.99389060E-02  0.16180357E-02 -0.73855480E-02 -0.11241594E-02
    3   14    0.77704933E-03  0.13792339E-02 -0.22803845E-03  0.13111846E-02  0.10180739E-02  0.12431914E-03
    4   14    0.65462696E-02 -0.11345893E-02 -0.65557340E-02 -0.11401313E-02  0.43356736E-02  0.22648368E-04
    5   14   -0.14009539E-02  0.24479816E-03 -0.16044175E-02 -0.71385352E-03  0.19253016E-03  0.98976398E-03
    6   14    0.99246070E-02  0.15877483E-02  0.24130123E-01 -0.17489289E-03 -0.73821487E-02  0.11543134E-02
    7   14    0.31358106E-03 -0.76270698E-03  0.69874148E-03 -0.24551554E-03 -0.21519109E-02 -0.22458949E-02
    8   14    0.83398068E-02 -0.13394799E-02 -0.83421006E-02 -0.13562226E-02  0.15743588E-01  0.11767858E-04
    9   14    0.12033221E-05 -0.69375761E-03 -0.74694782E-05 -0.72750847E-06  0.33285808E-05 -0.53307628E-03
   10   14    0.14077805E-01 -0.78490758E-03 -0.26658833E-05 -0.65250160E-06  0.14080891E-01 -0.88394234E-03
   11   14    0.86363937E-03  0.10230324E-02 -0.10172083E-02 -0.87049716E-03  0.61261703E-06 -0.93388199E-06
   12   14    0.14051342E-01 -0.29890638E-05 -0.14050272E-01  0.37193988E-05 -0.16705027E-05  0.58720635E-06
   13   14   -0.70810148E-03 -0.11891129E-04  0.11036729E-04  0.70858927E-03  0.72381362E-03  0.72273414E-03
   14   14    0.13530843E-15 -0.24967077E-17  0.12143064E-15  0.24967798E-17  0.10755286E-15 -0.14820317E-17
   15   14   -0.10866195E-05  0.66885938E-05  0.68897230E-03 -0.39964712E-07 -0.52816251E-03 -0.10732207E-05
   16   14   -0.22859294E-05  0.23319504E-06 -0.14078885E-01 -0.78822772E-03  0.14080189E-01  0.88756110E-03
    1   15    0.83259453E-02 -0.91807630E-03  0.15844347E-01 -0.16295832E-02 -0.83277335E-02 -0.70429166E-03
    2   15    0.10918781E-02  0.67457553E-03  0.21426933E-04  0.21000097E-02  0.11593418E-02  0.38847516E-03
    3   15    0.65677524E-02 -0.42590797E-03  0.44086367E-02  0.22268383E-02 -0.65551926E-02 -0.65150945E-03
    4   15   -0.26267638E-03 -0.97453316E-03  0.92551017E-03 -0.79144242E-05 -0.17439295E-02 -0.10870398E-02
    5   15    0.99882931E-02  0.12216972E-02 -0.73143426E-02 -0.18304803E-03  0.24079750E-01  0.14756274E-02
    6   15   -0.13416819E-02  0.11627763E-03 -0.12522717E-02 -0.13226821E-02  0.75994390E-03  0.16804553E-02
    7   15   -0.24126722E-01 -0.14613372E-02 -0.73693360E-02 -0.13132095E-02 -0.99511587E-02 -0.95251587E-04
    8   15    0.12795929E-02  0.93830021E-03 -0.20655080E-03 -0.10826511E-02  0.14964154E-02  0.75728683E-03
    9   15    0.14051694E-01  0.25959548E-04  0.14049114E-01  0.25871144E-04  0.38718325E-06 -0.14636371E-05
   10   15    0.86813498E-03  0.10229636E-02  0.10204727E-02  0.86986736E-03  0.14218714E-06 -0.29923335E-06
   11   15    0.14078016E-01 -0.77443437E-03 -0.23693939E-05  0.35739586E-05 -0.14081717E-01  0.87447041E-03
   12   15    0.91751908E-05 -0.69075729E-03  0.85946134E-05 -0.12090043E-05 -0.83025834E-05  0.53006573E-03
   13   15    0.32810602E-05  0.27357394E-05  0.14075998E-01  0.80786739E-03 -0.14079657E-01 -0.90638479E-03
   14   15    0.10866195E-05  0.66885938E-05 -0.68897230E-03 -0.39964710E-07  0.52816251E-03 -0.10732207E-05
   15   15   -0.20955460E-14 -0.56951050E-17 -0.14120649E-14  0.14813334E-17  0.22828961E-14 -0.24968212E-17
   16   15   -0.70890548E-03 -0.10341376E-04 -0.10996346E-04 -0.70864653E-03 -0.72120247E-03 -0.72538983E-03
    1   16   -0.12745680E-02  0.94518173E-03  0.20097801E-03 -0.10836263E-02 -0.14926344E-02  0.76463624E-03
    2   16    0.65701934E-02  0.35541850E-03  0.43867209E-02 -0.22734444E-02 -0.65461634E-02  0.72108535E-03
    3   16   -0.10841161E-02  0.68476247E-03 -0.47493519E-06  0.21003466E-02 -0.11558168E-02  0.40206479E-03
    4   16   -0.24137515E-01  0.11383986E-02 -0.73861096E-02  0.12141938E-02 -0.99620723E-02 -0.43896715E-04
    5   16    0.13505679E-02  0.13190468E-03  0.12618965E-02 -0.13134398E-02 -0.77766700E-03  0.16712231E-02
    6   16    0.99889443E-02 -0.11488781E-02 -0.73150546E-02  0.13091278E-03  0.24093359E-01 -0.13069041E-02
    7   16    0.27538774E-03 -0.96946775E-03 -0.92562455E-03 -0.19449095E-04  0.17591014E-02 -0.10652800E-02
    8   16    0.83315661E-02  0.87510915E-03  0.15853411E-01  0.15490498E-02 -0.83244615E-02  0.74732280E-03
    9   16   -0.87035004E-03  0.10206878E-02 -0.10226414E-02  0.86789253E-03 -0.85578987E-06  0.60467117E-06
   10   16    0.14050812E-01  0.31615364E-05  0.14050207E-01  0.26930652E-05  0.51241902E-05 -0.66027614E-06
   11   16   -0.93542462E-05 -0.69065743E-03 -0.75103833E-05 -0.88219680E-06  0.75993971E-05  0.53092925E-03
   12   16    0.14080888E-01  0.78156520E-03  0.14056738E-05 -0.11810806E-06 -0.14077871E-01 -0.88069122E-03
   13   16    0.43080532E-06  0.92269214E-05  0.68784120E-03  0.10961243E-05 -0.52828090E-03 -0.14921630E-05
   14   16    0.22859294E-05  0.23319504E-06  0.14078885E-01 -0.78822772E-03 -0.14080189E-01  0.88756110E-03
   15   16    0.70890548E-03 -0.10341376E-04  0.10996346E-04 -0.70864653E-03  0.72120247E-03 -0.72538983E-03
   16   16    0.17676832E-14 -0.56951861E-17  0.14484941E-14  0.14817396E-17 -0.19654417E-14 -0.24968129E-17
