 written on 22Mar2022 at 20:10:06 
   2.82400000000000        2.82400000000000       0.000000000000000E+000
  0.000000000000000E+000   2.82400000000000        2.82400000000000     
   2.82400000000000       0.000000000000000E+000   2.82400000000000     
          16
          43
    3    3    3    3    1    3    3    1    1    3    1    1    1    3    3
    3    3    1    1    3    1    1    1    3    1    1    3    3    3    3
    1    1    1    3    1    1    3    3    1    3    3    3    3

   -2    0    1
    1    1    0.11968680E-01  0.28236923E-03
    2    1    0.78984617E-01  0.16046602E-02
    3    1    0.99456693E-02 -0.13554927E-02
    4    1    0.70640632E-02 -0.31719001E-03
    5    1   -0.35411973E-01 -0.40409713E-03
    6    1   -0.26411023E+00 -0.86532901E-03
    7    1    0.22083448E-01  0.98165310E-03
    8    1    0.19162619E-01 -0.36054903E-03
    9    1    0.17567988E-02 -0.80288992E-03
   10    1   -0.81982208E-04  0.16028767E-02
   11    1    0.70502728E-03  0.12925208E-02
   12    1   -0.30676931E-03 -0.82366057E-03
   13    1    0.57490796E-03  0.88058781E-03
   14    1   -0.11847970E-02  0.15567797E-02
   15    1    0.44692641E-02 -0.37043445E-02
   16    1   -0.14986849E-02  0.37457927E-02
    1    2    0.12660017E-01 -0.14589501E-03
    2    2    0.27777639E-01  0.69425063E-03
    3    2    0.13994294E-01  0.67327578E-03
    4    2    0.13962382E-01 -0.89736530E-03
    5    2    0.13187403E+00 -0.60492311E-03
    6    2    0.14054018E+00 -0.93880724E-03
    7    2    0.70809958E-01 -0.10935776E-02
    8    2    0.71597685E-01  0.14208568E-02
    9    2    0.52848358E-03 -0.20094289E-02
   10    2    0.39144719E-03 -0.55405078E-03
   11    2    0.13170139E-02  0.11001657E-02
   12    2   -0.20241950E-02  0.10106685E-02
   13    2    0.68548064E-03  0.12178234E-02
   14    2   -0.60214023E-03 -0.13995963E-03
   15    2   -0.25536848E-02 -0.48875428E-05
   16    2    0.14422416E-03 -0.15457549E-02
    1    3    0.80144249E-02 -0.44655939E-03
    2    3    0.78743305E-01 -0.39877186E-03
    3    3    0.11945517E-01 -0.14449678E-03
    4    3    0.94267416E-02  0.50679837E-03
    5    3   -0.42878245E-01  0.36107926E-03
    6    3   -0.13581840E+00  0.82245077E-03
    7    3   -0.71616587E-01  0.98697365E-04
    8    3   -0.18994304E-01  0.12954760E-02
    9    3   -0.85584444E-03  0.13308006E-02
   10    3    0.27019439E-03 -0.10801216E-02
   11    3    0.49468471E-03  0.26391404E-03
   12    3    0.59414604E-03 -0.99984142E-03
   13    3   -0.61290741E-03 -0.18855414E-02
   14    3    0.41714231E-03 -0.96867501E-03
   15    3    0.75883609E-03 -0.16920731E-02
   16    3    0.90008985E-03  0.16485925E-02
    1    4    0.10291717E-01 -0.24715822E-03
    2    4    0.76535446E-01 -0.27043784E-03
    3    4    0.81163182E-02  0.59935393E-03
    4    4    0.12758253E-01 -0.15478487E-04
    5    4   -0.44528539E-01  0.52531949E-03
    6    4   -0.13474452E+00  0.57879814E-03
    7    4   -0.19058441E-01 -0.24644958E-02
    8    4   -0.71337727E-01  0.13090288E-02
    9    4    0.10002439E-02  0.19472627E-02
   10    4   -0.13255808E-02 -0.11212067E-02
   11    4   -0.20870612E-02 -0.14805352E-02
   12    4    0.11893625E-02 -0.58305516E-03
   13    4   -0.24971872E-02 -0.68693608E-03
   14    4    0.32116859E-02  0.39101065E-03
   15    4    0.14259467E-02 -0.33057222E-04
   16    4    0.38294200E-03  0.10871963E-02
    1    5   -0.39970624E-01  0.44962120E-03
    2    5    0.14010281E-01 -0.19851804E-02
    3    5    0.14415077E+00  0.96921841E-03
    4    5    0.14417394E+00  0.37809908E-03
    5    5   -0.16231219E-01 -0.29699086E-03
    6    5   -0.53627239E-02  0.24165456E-02
    7    5    0.21484627E-01 -0.23849624E-02
    8    5    0.15986446E-01 -0.64844117E-03
    9    5   -0.27030442E-03 -0.37446970E-03
   10    5   -0.20913704E-02 -0.98760326E-03
   11    5   -0.24473457E-03 -0.13933709E-03
   12    5    0.60736506E-03  0.53370250E-03
   13    5    0.11603916E-02  0.21431783E-02
   14    5    0.20703799E-02  0.29655077E-02
   15    5    0.26241694E-02 -0.12185061E-02
   16    5   -0.24605968E-02 -0.11015029E-02
    1    6    0.14535124E-01 -0.93211974E-03
    2    6   -0.40205080E-01  0.36646809E-05
    3    6    0.14341176E+00  0.14601717E-02
    4    6    0.14349521E+00 -0.22960395E-02
    5    6   -0.13411364E-02 -0.32927927E-02
    6    6    0.63494066E-02  0.35124911E-03
    7    6   -0.55039797E-03  0.29477877E-02
    8    6    0.27774794E-02  0.69415341E-03
    9    6   -0.47765962E-03  0.11621859E-02
   10    6    0.64371073E-04 -0.44528767E-03
   11    6   -0.24049118E-03  0.55527316E-03
   12    6    0.13626836E-02 -0.15080551E-02
   13    6   -0.13904586E-03 -0.10667348E-02
   14    6   -0.47121203E-03 -0.42957237E-03
   15    6   -0.18181187E-02  0.21339542E-02
   16    6    0.47043348E-03 -0.95440083E-03
    1    7    0.34294461E-01  0.21669271E-03
    2    7    0.33786931E-01  0.13532304E-02
    3    7    0.16421924E+00 -0.21108704E-03
    4    7   -0.12807819E+00  0.76122448E-03
    5    7    0.17815410E-01  0.33456587E-02
    6    7   -0.65712431E-02 -0.21982544E-02
    7    7   -0.16408630E-01 -0.30789184E-03
    8    7    0.21266587E-01 -0.37223857E-03
    9    7   -0.58404117E-04  0.51692187E-04
   10    7    0.12110846E-02  0.38368035E-05
   11    7    0.59990299E-03 -0.10745244E-03
   12    7    0.61477402E-03  0.29863358E-03
   13    7   -0.11088893E-02  0.78105256E-03
   14    7   -0.12922576E-02 -0.19966000E-02
   15    7   -0.15692677E-02  0.49362300E-03
   16    7    0.17981636E-02  0.69154376E-03
    1    8    0.34569206E-01  0.10092290E-02
    2    8    0.35341493E-01  0.66151966E-03
    3    8   -0.12787847E+00 -0.41757966E-03
    4    8    0.16540573E+00  0.24414164E-03
    5    8    0.23166061E-01  0.87265473E-03
    6    8   -0.81321119E-02  0.28142185E-03
    7    8    0.17674488E-01 -0.13443109E-02
    8    8   -0.16031878E-01 -0.26047764E-03
    9    8    0.98630866E-03  0.66445456E-03
   10    8   -0.34080183E-03  0.57001236E-03
   11    8    0.20507323E-03 -0.33453750E-03
   12    8   -0.24708629E-03  0.10704812E-02
   13    8    0.20330854E-02  0.96993747E-03
   14    8    0.78930094E-03 -0.18980705E-02
   15    8   -0.16940207E-02  0.80157600E-05
   16    8   -0.12814340E-02 -0.14580701E-02
    1    9    0.12642419E-02  0.72757812E-03
    2    9   -0.43081426E-02 -0.59777422E-03
    3    9    0.36450272E-03  0.47191940E-02
    4    9    0.13774589E-02 -0.31801815E-02
    5    9   -0.44811590E-03  0.95693607E-03
    6    9   -0.12972805E-02  0.29149177E-03
    7    9   -0.29309712E-02 -0.79030613E-04
    8    9    0.30003940E-02  0.16381786E-02
    9    9    0.13498615E-01 -0.29832751E-03
   10    9    0.76785644E-01 -0.15998172E-02
   11    9    0.75896656E-02  0.14018019E-02
   12    9    0.10490064E-01  0.28597904E-03
   13    9   -0.35335552E-01  0.42016202E-03
   14    9   -0.26537346E+00  0.86729968E-03
   15    9    0.19940560E-01 -0.10253091E-02
   16    9    0.22822246E-01  0.35189756E-03
    1   10    0.30527336E-02 -0.22832236E-03
    2   10   -0.61501355E-04 -0.37984988E-03
    3   10   -0.30198341E-02  0.24205441E-03
    4   10    0.29805138E-03  0.14494775E-03
    5   10   -0.56206454E-03  0.12661795E-02
    6   10    0.11997897E-02  0.15632384E-03
    7   10    0.17760717E-02 -0.11489872E-02
    8   10   -0.89511285E-03 -0.11821211E-02
    9   10    0.14443181E-01  0.13840463E-03
   10   10    0.27950391E-01 -0.68107067E-03
   11   10    0.13105498E-01 -0.69127811E-03
   12   10    0.13127454E-01  0.93329868E-03
   13   10    0.13192596E+00  0.61267483E-03
   14   10    0.14083514E+00  0.90947939E-03
   15   10    0.71199145E-01  0.11152437E-02
   16   10    0.70427093E-01 -0.14118268E-02
    1   11   -0.76972791E-03 -0.17156858E-02
    2   11    0.95354407E-03  0.17130819E-02
    3   11    0.92717994E-03  0.18975466E-03
    4   11   -0.69306466E-03  0.29189799E-03
    5   11   -0.34562012E-03 -0.65363595E-03
    6   11    0.14341516E-02 -0.10512500E-02
    7   11   -0.51342953E-03 -0.19071443E-02
    8   11    0.34059424E-03  0.22965575E-02
    9   11    0.94641910E-02  0.46925220E-03
   10   11    0.77158175E-01  0.38306227E-03
   11   11    0.13442009E-01  0.11503117E-03
   12   11    0.80813950E-02 -0.49483968E-03
   13   11   -0.45039671E-01 -0.34177694E-03
   14   11   -0.13381495E+00 -0.80893636E-03
   15   11   -0.71193940E-01 -0.95898844E-04
   16   11   -0.18441708E-01 -0.13326935E-02
    1   12   -0.26121171E-02  0.33822653E-02
    2   12    0.25437740E-02 -0.27014149E-02
    3   12    0.19955536E-02 -0.28317600E-02
    4   12    0.25941031E-03  0.88645654E-03
    5   12    0.15565055E-02 -0.28671826E-02
    6   12   -0.13236957E-02  0.23592858E-02
    7   12   -0.21692820E-03  0.55198475E-03
    8   12   -0.16316232E-03  0.15364968E-02
    9   12    0.72286470E-02  0.23169371E-03
   10   12    0.79334858E-01  0.28378434E-03
   11   12    0.94008382E-02 -0.59620406E-03
   12   12    0.12656598E-01  0.93900736E-05
   13   12   -0.43319281E-01 -0.56267732E-03
   14   12   -0.13486429E+00 -0.56832553E-03
   15   12   -0.18377417E-01  0.24505550E-02
   16   12   -0.71523725E-01 -0.12735171E-02
    1   13   -0.22594309E-03 -0.61122535E-03
    2   13    0.32781983E-02 -0.37907303E-03
    3   13   -0.65312226E-03 -0.63165869E-03
    4   13   -0.15283983E-02  0.11550165E-03
    5   13   -0.20822130E-02  0.16900154E-02
    6   13   -0.64625802E-02  0.75673445E-03
    7   13    0.10745909E-02  0.60760799E-02
    8   13    0.61461581E-02 -0.47063896E-02
    9   13   -0.40206818E-01 -0.47876838E-03
   10   13    0.14618999E-01  0.19820923E-02
   11   13    0.14370926E+00 -0.91058109E-03
   12   13    0.14370369E+00 -0.39795575E-03
   13   13   -0.16684174E-01  0.29721006E-03
   14   13   -0.75692480E-02 -0.23861073E-02
   15   13    0.17863445E-01  0.23679266E-02
   16   13    0.23294917E-01  0.65384265E-03
    1   14   -0.43657496E-03  0.69023470E-03
    2   14    0.62857881E-03 -0.11742147E-03
    3   14    0.21650817E-02  0.14480902E-02
    4   14    0.57885265E-03 -0.46920569E-03
    5   14    0.57866025E-02  0.17515293E-02
    6   14   -0.41344574E-04 -0.66618892E-03
    7   14   -0.22922418E-02 -0.32694225E-02
    8   14   -0.45820715E-02  0.33687571E-03
    9   14    0.14063921E-01  0.94340013E-03
   10   14   -0.39877688E-01  0.13057381E-04
   11   14    0.14446691E+00 -0.14697909E-02
   12   14    0.14437148E+00  0.22965332E-02
   13   14    0.14768036E-02  0.32996764E-02
   14   14    0.61099433E-02 -0.34466908E-03
   15   14    0.74066969E-03 -0.29083704E-02
   16   14   -0.26243822E-02 -0.71271880E-03
    1   15   -0.61604738E-03 -0.53900607E-03
    2   15   -0.23775839E-02 -0.21408373E-02
    3   15   -0.10319568E-02 -0.15059571E-02
    4   15   -0.27153648E-03  0.26496367E-03
    5   15   -0.22509239E-02 -0.62412765E-02
    6   15    0.48218556E-02  0.13360916E-02
    7   15    0.66466222E-03 -0.29876590E-03
    8   15   -0.10566623E-02  0.46543200E-02
    9   15    0.34214022E-01 -0.18917476E-03
   10   15    0.34799630E-01 -0.13489951E-02
   11   15    0.16521889E+00  0.18508212E-03
   12   15   -0.12771879E+00 -0.74779454E-03
   13   15    0.21483532E-01 -0.33512104E-02
   14   15   -0.63437092E-02  0.21912524E-02
   15   15   -0.16484498E-01  0.29516758E-03
   16   15    0.18062409E-01  0.35778298E-03
    1   16   -0.16503561E-02  0.57409613E-03
    2   16   -0.82685821E-03  0.15845521E-02
    3   16    0.14852284E-03  0.15143990E-04
    4   16   -0.18650139E-03  0.20711446E-02
    5   16   -0.53840383E-02  0.46300878E-02
    6   16    0.27326543E-02 -0.16644872E-02
    7   16    0.24372494E-02 -0.31993061E-02
    8   16    0.40699139E-03 -0.15647491E-02
    9   16    0.33967480E-01 -0.10260446E-02
   10   16    0.33198488E-01 -0.68920494E-03
   11   16   -0.12792278E+00  0.41081827E-03
   12   16    0.16400921E+00 -0.21016526E-03
   13   16    0.16135128E-01 -0.86211439E-03
   14   16   -0.47929222E-02 -0.27384143E-03
   15   16    0.21635056E-01  0.13764677E-02
   16   16   -0.16854844E-01  0.24853164E-03

   -2    1    0
    1    1    0.11969015E-01  0.44340467E-03
    2    1    0.70691498E-02  0.25635355E-03
    3    1    0.78979131E-01  0.28729442E-03
    4    1    0.99526349E-02 -0.78074381E-03
    5    1   -0.35414456E-01 -0.27952384E-03
    6    1    0.19151510E-01 -0.10645679E-02
    7    1   -0.26410328E+00  0.36224942E-03
    8    1    0.22091519E-01  0.27227285E-03
    9    1    0.18324108E-02 -0.88243775E-03
   10    1    0.11215241E-02  0.25580050E-04
   11    1   -0.74894740E-03  0.22618488E-02
   12    1   -0.14286681E-03 -0.13934374E-03
   13    1    0.63654214E-03  0.81776967E-03
   14    1   -0.31411650E-02  0.28019177E-02
   15    1   -0.57778634E-03  0.94659808E-03
   16    1    0.54170577E-02 -0.20671134E-02
    1    2    0.10297840E-01  0.27970057E-03
    2    2    0.12752604E-01  0.96359228E-04
    3    2    0.76539674E-01 -0.91974429E-03
    4    2    0.81120067E-02  0.78031785E-03
    5    2   -0.44535868E-01  0.40090015E-03
    6    2   -0.71318304E-01  0.99877550E-03
    7    2   -0.13475349E+00  0.75059912E-04
    8    2   -0.19063597E-01 -0.27667553E-02
    9    2    0.21223785E-02  0.25483716E-02
   10    2    0.16148937E-02 -0.26456376E-03
   11    2   -0.19265689E-02 -0.10836801E-02
   12    2   -0.25976131E-02 -0.21695211E-02
   13    2   -0.28440633E-02 -0.90966226E-03
   14    2   -0.32848838E-03  0.67208405E-03
   15    2    0.20982244E-02 -0.21431094E-03
   16    2    0.62584764E-03 -0.51272458E-03
    1    3    0.12654965E-01 -0.12114746E-02
    2    3    0.13964992E-01 -0.51210826E-03
    3    3    0.27772398E-01  0.52901465E-03
    4    3    0.13992913E-01  0.10536480E-02
    5    3    0.13187564E+00 -0.39860338E-03
    6    3    0.71576670E-01  0.20693592E-02
    7    3    0.14055481E+00 -0.20185505E-03
    8    3    0.70808983E-01 -0.47033862E-03
    9    3   -0.55987846E-05 -0.14753514E-02
   10    3   -0.15848950E-02  0.10791039E-02
   11    3    0.29911687E-03 -0.47269748E-03
   12    3    0.12570739E-02  0.66114213E-03
   13    3    0.78319203E-03  0.11142935E-02
   14    3    0.76642787E-03 -0.15555272E-02
   15    3   -0.23452438E-03 -0.50431060E-03
   16    3   -0.25400463E-02 -0.63727440E-03
    1    4    0.80172243E-02  0.77212214E-04
    2    4    0.94200634E-02  0.67218663E-03
    3    4    0.78734033E-01 -0.10412797E-02
    4    4    0.11953287E-01 -0.26724689E-04
    5    4   -0.42880326E-01  0.23132735E-03
    6    4   -0.18994768E-01  0.98556329E-03
    7    4   -0.13582007E+00  0.30438760E-03
    8    4   -0.71614226E-01 -0.20195277E-03
    9    4   -0.14521978E-02  0.20915750E-03
   10    4    0.12865084E-02 -0.49611031E-03
   11    4    0.22731883E-03 -0.47707029E-03
   12    4    0.17011995E-03 -0.16561609E-03
   13    4   -0.38761454E-03 -0.15396251E-02
   14    4    0.13833250E-02  0.24385109E-02
   15    4    0.10254148E-02  0.14640121E-03
   16    4    0.11737583E-02 -0.98264852E-03
    1    5   -0.39964529E-01  0.47014865E-03
    2    5    0.14417086E+00  0.80455523E-03
    3    5    0.14007360E-01 -0.28588091E-02
    4    5    0.14415385E+00  0.13852894E-02
    5    5   -0.16237319E-01 -0.24310017E-03
    6    5    0.15989141E-01 -0.91875009E-03
    7    5   -0.53629720E-02  0.29734789E-02
    8    5    0.21484929E-01 -0.26573280E-02
    9    5   -0.26079825E-03 -0.37754164E-03
   10    5    0.13577251E-02  0.86054753E-03
   11    5   -0.25270443E-02 -0.54858395E-03
   12    5   -0.57087639E-03 -0.89409580E-03
   13    5    0.11861008E-02  0.21187074E-02
   14    5   -0.30121351E-02 -0.13944784E-02
   15    5    0.23506908E-02  0.26848147E-02
   16    5    0.29024576E-02 -0.66749801E-03
    1    6    0.34572588E-01 -0.11131680E-02
    2    6    0.16538394E+00 -0.22141178E-03
    3    6    0.35349937E-01  0.14520101E-02
    4    6   -0.12786751E+00 -0.93833988E-03
    5    6    0.23166352E-01  0.10538537E-02
    6    6   -0.16040721E-01  0.50232761E-03
    7    6   -0.81285306E-02  0.72475854E-03
    8    6    0.17665613E-01 -0.65334597E-03
    9    6   -0.32158627E-02 -0.14155485E-02
   10    6   -0.11261459E-02  0.67546911E-03
   11    6    0.38596434E-04  0.16835739E-03
   12    6    0.60307039E-03  0.57910550E-03
   13    6    0.24096747E-02  0.11696321E-02
   14    6    0.40878966E-03 -0.51228851E-03
   15    6    0.22699860E-02 -0.86192533E-03
   16    6   -0.68270333E-03  0.32960300E-03
    1    7    0.14525577E-01  0.34994451E-02
    2    7    0.14348704E+00 -0.27185109E-02
    3    7   -0.40215562E-01  0.84814214E-03
    4    7    0.14341505E+00  0.10683728E-02
    5    7   -0.13511264E-02 -0.36558705E-02
    6    7    0.27922219E-02 -0.48610010E-03
    7    7    0.63493093E-02 -0.11098373E-02
    8    7   -0.55425923E-03  0.17622347E-02
    9    7    0.17236963E-02 -0.10543547E-02
   10    7    0.54950995E-03 -0.19302533E-02
   11    7    0.47524619E-03 -0.85530367E-03
   12    7    0.16659675E-03  0.13704697E-02
   13    7   -0.32240886E-03 -0.88715583E-03
   14    7    0.11739299E-03 -0.13119103E-03
   15    7   -0.11935403E-02  0.29111344E-03
   16    7   -0.26510400E-02  0.24858675E-02
    1    8    0.34290990E-01 -0.19236192E-02
    2    8   -0.12806789E+00  0.23719766E-03
    3    8    0.33791204E-01  0.21492019E-02
    4    8    0.16420137E+00 -0.69102402E-03
    5    8    0.17812706E-01  0.35314593E-02
    6    8    0.21267394E-01  0.32677497E-03
    7    8   -0.65678072E-02 -0.17564080E-02
    8    8   -0.16400624E-01  0.44762974E-03
    9    8    0.20282400E-02  0.42621891E-02
   10    8   -0.30993527E-03 -0.96513755E-04
   11    8    0.16224286E-02 -0.38068693E-03
   12    8    0.10059364E-02  0.77102292E-03
   13    8   -0.13095691E-02  0.39859186E-03
   14    8    0.14843142E-02 -0.31269767E-03
   15    8   -0.23223829E-02 -0.34620939E-02
   16    8   -0.25229840E-02 -0.12020502E-02
    1    9    0.11845449E-02  0.65178936E-03
    2    9   -0.47215452E-04 -0.23342157E-02
    3    9   -0.36490373E-02  0.69138543E-04
    4    9    0.12065417E-02  0.32930863E-02
    5    9   -0.51145191E-03  0.89507538E-03
    6    9    0.46343323E-02  0.70285878E-03
    7    9   -0.19071132E-02 -0.31527810E-03
    8    9   -0.38717614E-02  0.15507889E-02
    9    9    0.13502170E-01 -0.45135944E-03
   10    9    0.10491524E-01 -0.28988279E-03
   11    9    0.76788346E-01 -0.28435426E-03
   12    9    0.76021714E-02  0.83214283E-03
   13    9   -0.35336893E-01  0.29898607E-03
   14    9    0.22819405E-01  0.10471817E-02
   15    9   -0.26536321E+00 -0.36375439E-03
   16    9    0.19941864E-01 -0.32563932E-03
    1   10   -0.37329707E-02  0.39827379E-02
    2   10   -0.17027598E-03  0.12094306E-02
    3   10    0.31430017E-02 -0.26616698E-02
    4   10    0.25006630E-02 -0.35159734E-02
    5   10    0.19110245E-02 -0.30964806E-02
    6   10    0.54502149E-03  0.11245938E-02
    7   10   -0.20903778E-03  0.17519006E-02
    8   10    0.58183939E-03  0.73589335E-04
    9   10    0.72334705E-02 -0.29185483E-03
   10   10    0.12655114E-01 -0.91521115E-04
   11   10    0.79341290E-01  0.92844879E-03
   12   10    0.94002597E-02 -0.77707381E-03
   13   10   -0.43334516E-01 -0.43300230E-03
   14   10   -0.71500707E-01 -0.99249201E-03
   15   10   -0.13487428E+00 -0.44954471E-04
   16   10   -0.18381315E-01  0.27615872E-02
    1   11    0.35872552E-02  0.30550207E-03
    2   11   -0.14493731E-03  0.21749230E-03
    3   11    0.19705705E-04 -0.28728129E-03
    4   11   -0.29468287E-02 -0.20949170E-03
    5   11   -0.66495353E-03  0.11688474E-02
    6   11   -0.15147449E-02 -0.11943465E-02
    7   11    0.83532276E-03 -0.21127587E-03
    8   11    0.17528631E-02 -0.17725257E-02
    9   11    0.14438326E-01  0.12048551E-02
   10   11    0.13135255E-01  0.54920764E-03
   11   11    0.27956460E-01 -0.52210751E-03
   12   11    0.13091145E-01 -0.10714796E-02
   13   11    0.13193400E+00  0.40686389E-03
   14   11    0.70402843E-01 -0.20347038E-02
   15   11    0.14084591E+00  0.15575517E-03
   16   11    0.71208005E-01  0.48047487E-03
    1   12   -0.16958510E-03 -0.28415866E-02
    2   12   -0.13840665E-02  0.79317446E-03
    3   12    0.99480994E-03  0.23177902E-02
    4   12    0.12457685E-02 -0.23416081E-03
    5   12   -0.57711259E-03 -0.30302148E-03
    6   12   -0.14827443E-03  0.30921941E-02
    7   12    0.82955461E-03  0.60508622E-04
    8   12   -0.92715243E-03 -0.11985584E-02
    9   12    0.94627926E-02 -0.52703220E-04
   10   12    0.80714338E-02 -0.68093233E-03
   11   12    0.77151014E-01  0.10276712E-02
   12   12    0.13456813E-01  0.18795964E-04
   13   12   -0.45035915E-01 -0.21277831E-03
   14   12   -0.18436676E-01 -0.10158519E-02
   15   12   -0.13382011E+00 -0.29838637E-03
   16   12   -0.71193296E-01  0.19646386E-03
    1   13   -0.22897570E-03 -0.62054862E-03
    2   13   -0.22790605E-02  0.44248425E-03
    3   13    0.37172719E-02  0.57028913E-04
    4   13   -0.33013661E-03 -0.13833807E-02
    5   13   -0.21070077E-02  0.16644601E-02
    6   13    0.66883690E-02 -0.49899920E-02
    7   13   -0.67429071E-02  0.47644581E-03
    8   13    0.78982934E-03  0.66327870E-02
    9   13   -0.40207264E-01 -0.49465350E-03
   10   13    0.14370114E+00 -0.82116115E-03
   11   13    0.14613400E-01  0.28507657E-02
   12   13    0.14371544E+00 -0.13380246E-02
   13   13   -0.16690833E-01  0.23918544E-03
   14   13    0.23306246E-01  0.92493144E-03
   15   13   -0.75689909E-02 -0.29385968E-02
   16   13    0.17869934E-01  0.26231961E-02
    1   14    0.25626227E-02 -0.15171330E-02
    2   14    0.69431509E-03  0.16730542E-02
    3   14   -0.12014975E-02  0.11772467E-02
    4   14   -0.25148720E-03  0.93150986E-03
    5   14   -0.57633736E-02  0.48316777E-02
    6   14   -0.12886860E-02 -0.61375136E-03
    7   14    0.12660873E-02 -0.64177205E-03
    8   14    0.14355038E-02 -0.28866826E-02
    9   14    0.33960772E-01  0.11108830E-02
   10   14    0.16398482E+00  0.27335783E-03
   11   14    0.33201987E-01 -0.14994677E-02
   12   14   -0.12790939E+00  0.94527571E-03
   13   14    0.16137940E-01 -0.10481267E-02
   14   14   -0.16859053E-01 -0.49610922E-03
   15   14   -0.48042959E-02 -0.70696689E-03
   16   14    0.21617609E-01  0.66719551E-03
    1   15   -0.26536886E-02 -0.15109123E-02
    2   15    0.13865968E-02 -0.88531116E-03
    3   15    0.21906529E-03 -0.52805906E-03
    4   15    0.17499083E-02  0.22699062E-02
    5   15    0.59661099E-02  0.19351725E-02
    6   15   -0.42343148E-02  0.11653584E-02
    7   15    0.67958659E-03  0.56311283E-04
    8   15   -0.14643551E-02 -0.29124425E-02
    9   15    0.14069968E-01 -0.34788553E-02
   10   15    0.14436843E+00  0.26920507E-02
   11   15   -0.39888879E-01 -0.80599787E-03
   12   15    0.14447792E+00 -0.10600255E-02
   13   15    0.14712108E-02  0.36699754E-02
   14   15   -0.26048912E-02  0.47990043E-03
   15   15    0.61121259E-02  0.11152239E-02
   16   15    0.74137936E-03 -0.17301208E-02
    1   16   -0.26982191E-02  0.36675828E-02
    2   16    0.64751122E-03 -0.12412489E-03
    3   16   -0.27892553E-02 -0.25247592E-02
    4   16   -0.14296722E-02 -0.63588131E-03
    5   16   -0.20539517E-02 -0.66193413E-02
    6   16   -0.73739222E-03  0.36451696E-02
    7   16    0.58585694E-02 -0.13743138E-03
    8   16    0.16101191E-02 -0.19864112E-02
    9   16    0.34206307E-01  0.19284085E-02
   10   16   -0.12770215E+00 -0.23085374E-03
   11   16    0.34804268E-01 -0.21387798E-02
   12   16    0.16519259E+00  0.66403566E-03
   13   16    0.21484421E-01 -0.35279060E-02
   14   16    0.18058843E-01 -0.34290000E-03
   15   16   -0.63480630E-02  0.17477633E-02
   16   16   -0.16468423E-01 -0.46005373E-03

   -2    1    1
    1    1    0.28435782E-01 -0.18446331E-02
    2    1    0.13177525E-01 -0.32568206E-02
    3    1    0.13187174E-01  0.42869888E-02
    4    1    0.13185343E-01  0.51605016E-03
    5    1   -0.10496566E+00 -0.12797192E-03
    6    1   -0.23877097E-01 -0.54945789E-03
    7    1   -0.23879701E-01  0.61102557E-03
    8    1   -0.23883540E-01  0.27051395E-04
    9    1   -0.15835205E-02  0.19831995E-02
   10    1   -0.26898249E-02 -0.45461425E-03
   11    1    0.10891383E-02 -0.42228819E-02
   12    1    0.48610190E-02  0.33229788E-02
   13    1   -0.46298396E-04 -0.87535140E-03
   14    1   -0.28519057E-04  0.66801723E-03
   15    1    0.55514314E-03  0.88232793E-04
   16    1    0.11288887E-02  0.12512914E-02
    1    2    0.78014005E-01  0.40391600E-02
    2    2    0.13080740E-01 -0.25829356E-03
    3    2    0.91669256E-02 -0.12012181E-02
    4    2    0.83208823E-02 -0.15016768E-02
    5    2   -0.24202485E-01 -0.10795961E-02
    6    2   -0.10445167E+00 -0.22390891E-03
    7    2   -0.23946881E-01  0.68071547E-03
    8    2   -0.23233598E-01  0.77026091E-03
    9    2    0.48609468E-02  0.12192720E-02
   10    2   -0.11945914E-02 -0.41998113E-04
   11    2   -0.10218328E-02  0.12504166E-02
   12    2   -0.25395450E-02 -0.22916129E-02
   13    2   -0.11555907E-02 -0.89239325E-03
   14    2   -0.43376852E-03  0.40568097E-03
   15    2   -0.12889143E-02 -0.48823747E-03
   16    2    0.15123174E-02  0.10931148E-02
    1    3    0.78009175E-01 -0.32816958E-02
    2    3    0.83210739E-02  0.11835796E-02
    3    3    0.13074467E-01 -0.39057506E-03
    4    3    0.91724143E-02  0.15064570E-02
    5    3   -0.24209918E-01 -0.41109644E-03
    6    3   -0.23222951E-01  0.40426439E-04
    7    3   -0.10445520E+00  0.27102797E-03
    8    3   -0.23949487E-01 -0.50238142E-04
    9    3    0.11935420E-02  0.48745728E-02
   10    3    0.24684971E-03 -0.22186249E-02
   11    3   -0.12634141E-02  0.32131405E-04
   12    3   -0.10985787E-02 -0.15320200E-02
   13    3   -0.81843454E-03 -0.12238118E-02
   14    3    0.45646830E-03  0.77066437E-03
   15    3   -0.18812164E-03  0.15665740E-03
   16    3   -0.96357271E-03  0.57390535E-03
    1    4    0.78008698E-01  0.38019102E-03
    2    4    0.91618789E-02  0.15951300E-02
    3    4    0.83290428E-02 -0.15828510E-02
    4    4    0.13084371E-01 -0.33997327E-03
    5    4   -0.24205809E-01 -0.74835387E-03
    6    4   -0.23948217E-01 -0.37128170E-03
    7    4   -0.23230055E-01  0.11019204E-02
    8    4   -0.10445306E+00  0.27805919E-04
    9    4   -0.24622315E-02 -0.24490840E-02
   10    4    0.16834917E-02  0.11751871E-02
   11    4    0.16500708E-03  0.48747264E-03
   12    4   -0.13329095E-02 -0.11176512E-03
   13    4   -0.48135087E-03 -0.55886096E-03
   14    4   -0.20216027E-02 -0.15669222E-03
   15    4    0.78147608E-03  0.43137688E-04
   16    4    0.60226370E-04  0.65285600E-03
    1    5   -0.30837991E-02 -0.16289250E-03
    2    5    0.84268979E-02  0.20102648E-02
    3    5    0.84277561E-02  0.11358440E-02
    4    5    0.84236371E-02  0.15679214E-02
    5    5    0.59063601E-02  0.10741426E-02
    6    5    0.53575063E-03 -0.45332919E-02
    7    5    0.53223823E-03  0.65689571E-02
    8    5    0.53388910E-03  0.10245847E-02
    9    5    0.81026988E-03  0.79329341E-03
   10    5    0.13208350E-02 -0.77928511E-03
   11    5    0.88841921E-03 -0.34811644E-03
   12    5    0.45329320E-03 -0.12203365E-02
   13    5    0.34777255E-02  0.14165028E-02
   14    5   -0.49193427E-02  0.10105138E-02
   15    5    0.63015264E-03 -0.45399505E-02
   16    5    0.61829846E-02  0.65632020E-02
    1    6   -0.41958172E-01  0.86032587E-03
    2    6    0.19656789E-01  0.13353456E-03
    3    6   -0.43037309E-01 -0.37311596E-03
    4    6   -0.42134888E-01 -0.43859085E-03
    5    6   -0.67979308E-02  0.44252470E-02
    6    6   -0.16652118E-01  0.80629725E-04
    7    6    0.20312088E-01 -0.53619337E-02
    8    6    0.18990433E-01 -0.21255743E-02
    9    6    0.18979371E-02  0.43951343E-03
   10    6    0.16491612E-03 -0.45454877E-03
   11    6   -0.51728268E-03 -0.96329556E-04
   12    6    0.81521836E-04  0.29213804E-03
   13    6    0.53225109E-02 -0.66875874E-04
   14    6    0.46614627E-04 -0.75724784E-03
   15    6   -0.31606514E-02  0.17025130E-02
   16    6   -0.50707498E-02 -0.23060430E-02
    1    7   -0.41949752E-01 -0.56211480E-03
    2    7   -0.42144977E-01 -0.13091836E-02
    3    7    0.19665340E-01 -0.55358662E-03
    4    7   -0.43034441E-01 -0.12664866E-02
    5    7   -0.67956712E-02 -0.68529892E-02
    6    7    0.19000033E-01  0.52689691E-02
    7    7   -0.16674648E-01  0.11654781E-03
    8    7    0.20309221E-01  0.20486703E-02
    9    7    0.11954483E-02  0.11601832E-02
   10    7   -0.60015153E-03  0.50010021E-03
   11    7   -0.16945465E-03 -0.11713386E-03
   12    7   -0.72109067E-03  0.59505847E-03
   13    7   -0.31239285E-03  0.55701480E-02
   14    7    0.23738043E-02 -0.22523140E-02
   15    7    0.53091019E-04 -0.76546957E-03
   16    7   -0.32055320E-02 -0.57442779E-02
    1    8   -0.41954734E-01  0.15820708E-03
    2    8   -0.43022387E-01 -0.10714784E-02
    3    8   -0.42144390E-01 -0.63011163E-03
    4    8    0.19652431E-01 -0.19818886E-03
    5    8   -0.67896180E-02 -0.12151212E-02
    6    8    0.20303571E-01  0.20944216E-02
    7    8    0.18997243E-01 -0.21840163E-02
    8    8   -0.16668008E-01  0.80653920E-04
    9    8    0.48377880E-03 -0.25770227E-03
   10    8   -0.14016822E-02 -0.29201806E-03
   11    8   -0.80277872E-03 -0.39048808E-03
   12    8   -0.51112087E-03 -0.79109087E-03
   13    8   -0.59508982E-02 -0.57053049E-02
   14    8    0.42441012E-02  0.16549000E-02
   15    8    0.23322234E-02  0.51419580E-02
   16    8    0.61447435E-04 -0.74395837E-03
    1    9   -0.69690323E-03  0.84563549E-03
    2    9    0.40528214E-02  0.23052877E-03
    3    9    0.28435589E-03 -0.35481914E-02
    4    9   -0.34876925E-02  0.39973407E-02
    5    9    0.13451269E-02 -0.21449055E-03
    6    9   -0.17724085E-03  0.58055128E-03
    7    9   -0.75676642E-03 -0.31806871E-05
    8    9   -0.13303813E-02  0.11601582E-02
    9    9    0.27293346E-01  0.18660682E-02
   10    9    0.13863336E-01  0.32613244E-02
   11    9    0.13862711E-01 -0.42835527E-02
   12    9    0.13861045E-01 -0.51047133E-03
   13    9   -0.10430825E+00  0.14099467E-03
   14    9   -0.23963493E-01  0.56314813E-03
   15    9   -0.23970198E-01 -0.58700465E-03
   16    9   -0.23974177E-01 -0.23710762E-04
    1   10   -0.53832814E-02  0.95340519E-03
    2   10    0.35824835E-04 -0.63640268E-03
    3   10    0.11202029E-02  0.21745073E-02
    4   10    0.26628612E-02 -0.30954669E-02
    5   10    0.22494707E-02 -0.33402890E-03
    6   10   -0.39934632E-03 -0.15645621E-06
    7   10    0.66688478E-04 -0.18103698E-02
    8   10   -0.27350016E-02  0.11817978E-02
    9   10    0.77749468E-01 -0.40462760E-02
   10   10    0.12485271E-01  0.27070152E-03
   11   10    0.83886713E-02  0.11888215E-02
   12   10    0.92193501E-02  0.15006852E-02
   13   10   -0.23643691E-01  0.10912006E-02
   14   10   -0.10485942E+00  0.23517862E-03
   15   10   -0.23857803E-01 -0.67126648E-03
   16   10   -0.24555847E-01 -0.78367269E-03
    1   11   -0.17279518E-02  0.46211114E-02
    2   11   -0.12158410E-03 -0.30235237E-02
    3   11    0.10990475E-03 -0.56782117E-03
    4   11    0.11949047E-02 -0.60663387E-03
    5   11    0.19180791E-02 -0.67064499E-03
    6   11   -0.16756545E-02  0.85549357E-03
    7   11   -0.64833947E-03 -0.24565055E-03
    8   11   -0.25306122E-03 -0.75408355E-03
    9   11    0.77756721E-01  0.32684522E-02
   10   11    0.92170028E-02 -0.12146225E-02
   11   11    0.12474184E-01  0.42170389E-03
   12   11    0.83967552E-02 -0.15112738E-02
   13   11   -0.23655917E-01  0.42281889E-03
   14   11   -0.24549061E-01 -0.54485369E-04
   15   11   -0.10485906E+00 -0.26502518E-03
   16   11   -0.23866557E-01  0.52863631E-04
    1   12    0.19278814E-02 -0.27026259E-02
    2   12   -0.15830802E-02  0.20967182E-02
    3   12   -0.43875710E-04 -0.31403630E-03
    4   12    0.17912330E-03 -0.71120053E-03
    5   12    0.15810103E-02 -0.53262317E-05
    6   12    0.80263625E-03 -0.14829200E-02
    7   12   -0.19986062E-02  0.12576919E-03
    8   12   -0.89655771E-03  0.25064658E-03
    9   12    0.77756380E-01 -0.38119657E-03
   10   12    0.83827038E-02 -0.15774742E-02
   11   12    0.92289021E-02  0.15742906E-02
   12   12    0.12483285E-01  0.33365588E-03
   13   12   -0.23652169E-01  0.75982860E-03
   14   12   -0.23862988E-01  0.38138170E-03
   15   12   -0.24558292E-01 -0.11085006E-02
   16   12   -0.10485688E+00 -0.11267955E-04
    1   13   -0.55278728E-03  0.93572749E-03
    2   13   -0.11784424E-02 -0.71793680E-03
    3   13   -0.74745911E-03 -0.28610313E-03
    4   13   -0.31247733E-03 -0.11588520E-02
    5   13   -0.21165747E-02  0.21086887E-02
    6   13    0.30514069E-02  0.65785245E-04
    7   13   -0.24986881E-02 -0.54830604E-02
    8   13   -0.80513468E-02  0.56201708E-02
    9   13   -0.29456621E-02  0.19484952E-03
   10   13    0.84888907E-02 -0.20151246E-02
   11   13    0.84903089E-02 -0.11378165E-02
   12   13    0.84865728E-02 -0.15756695E-02
   13   13    0.65965205E-02 -0.10297364E-02
   14   13   -0.40783101E-03  0.45377941E-02
   15   13   -0.40995793E-03 -0.65727953E-02
   16   13   -0.40820194E-03 -0.10117456E-02
    1   14   -0.11294847E-02  0.84562076E-03
    2   14    0.45957958E-03 -0.13967471E-03
    3   14    0.64195439E-03 -0.89733579E-03
    4   14    0.61755984E-04  0.12305544E-02
    5   14   -0.40317651E-02  0.58419377E-03
    6   14    0.93740946E-03 -0.29123461E-03
    7   14    0.30661705E-02  0.29640887E-02
    8   14    0.49608850E-02 -0.36630411E-02
    9   14   -0.41550446E-01 -0.87656683E-03
   10   14    0.19970180E-01 -0.15703239E-03
   11   14   -0.42080489E-01  0.42103571E-03
   12   14   -0.42954064E-01  0.42426047E-03
   13   14   -0.61455805E-02 -0.44239463E-02
   14   14   -0.16186941E-01 -0.53638293E-04
   15   14    0.18939146E-01  0.53187024E-02
   16   14    0.20267187E-01  0.21416500E-02
    1   15   -0.40896806E-03  0.15481515E-02
    2   15    0.75223958E-03  0.14290336E-02
    3   15    0.79662331E-03  0.19427783E-03
    4   15    0.85097630E-03 -0.21022964E-03
    5   15    0.16052843E-02  0.62190790E-02
    6   15   -0.24801618E-02 -0.36135132E-02
    7   15    0.92895008E-03 -0.29813790E-03
    8   15    0.31141245E-02 -0.44849424E-02
    9   15   -0.41560306E-01  0.53733248E-03
   10   15   -0.42973001E-01  0.13252781E-02
   11   15    0.19974760E-01  0.51632391E-03
   12   15   -0.42082796E-01  0.12930040E-02
   13   15   -0.61463055E-02  0.68550276E-02
   14   15    0.20274089E-01 -0.52748308E-02
   15   15   -0.16208179E-01 -0.62072440E-04
   16   15    0.18933874E-01 -0.20708138E-02
    1   16    0.30274102E-03  0.13001153E-03
    2   16    0.15352541E-02 -0.11019741E-02
    3   16    0.95122746E-03  0.54289507E-03
    4   16    0.11383782E-02 -0.48008539E-03
    5   16    0.72437900E-02 -0.50575428E-02
    6   16   -0.43350556E-02  0.29137290E-02
    7   16   -0.24389365E-02  0.37824898E-02
    8   16    0.92061630E-03 -0.27680304E-03
    9   16   -0.41564980E-01 -0.16589481E-03
   10   16   -0.42074851E-01  0.10889764E-02
   11   16   -0.42968026E-01  0.63718271E-03
   12   16    0.19962343E-01  0.18845766E-03
   13   16   -0.61390785E-02  0.12156932E-02
   14   16    0.18926501E-01 -0.21157233E-02
   15   16    0.20271892E-01  0.21790002E-02
   16   16   -0.16201349E-01 -0.81154900E-04

   -1   -1    0
    1    1    0.11969015E-01 -0.44340467E-03
    2    1    0.10297840E-01 -0.27970057E-03
    3    1    0.12654965E-01  0.12114746E-02
    4    1    0.80172243E-02 -0.77212214E-04
    5    1   -0.39964529E-01 -0.47014865E-03
    6    1    0.34572588E-01  0.11131680E-02
    7    1    0.14525577E-01 -0.34994451E-02
    8    1    0.34290990E-01  0.19236192E-02
    9    1    0.11845449E-02 -0.65178936E-03
   10    1   -0.37329707E-02 -0.39827379E-02
   11    1    0.35872552E-02 -0.30550207E-03
   12    1   -0.16958510E-03  0.28415866E-02
   13    1   -0.22897570E-03  0.62054862E-03
   14    1    0.25626227E-02  0.15171330E-02
   15    1   -0.26536886E-02  0.15109123E-02
   16    1   -0.26982191E-02 -0.36675828E-02
    1    2    0.70691498E-02 -0.25635355E-03
    2    2    0.12752604E-01 -0.96359228E-04
    3    2    0.13964992E-01  0.51210826E-03
    4    2    0.94200634E-02 -0.67218663E-03
    5    2    0.14417086E+00 -0.80455523E-03
    6    2    0.16538394E+00  0.22141178E-03
    7    2    0.14348704E+00  0.27185109E-02
    8    2   -0.12806789E+00 -0.23719766E-03
    9    2   -0.47215453E-04  0.23342157E-02
   10    2   -0.17027598E-03 -0.12094306E-02
   11    2   -0.14493731E-03 -0.21749230E-03
   12    2   -0.13840665E-02 -0.79317446E-03
   13    2   -0.22790605E-02 -0.44248425E-03
   14    2    0.69431509E-03 -0.16730542E-02
   15    2    0.13865968E-02  0.88531116E-03
   16    2    0.64751122E-03  0.12412489E-03
    1    3    0.78979131E-01 -0.28729442E-03
    2    3    0.76539674E-01  0.91974429E-03
    3    3    0.27772398E-01 -0.52901465E-03
    4    3    0.78734033E-01  0.10412797E-02
    5    3    0.14007360E-01  0.28588091E-02
    6    3    0.35349937E-01 -0.14520101E-02
    7    3   -0.40215562E-01 -0.84814214E-03
    8    3    0.33791204E-01 -0.21492019E-02
    9    3   -0.36490373E-02 -0.69138543E-04
   10    3    0.31430017E-02  0.26616698E-02
   11    3    0.19705705E-04  0.28728129E-03
   12    3    0.99480994E-03 -0.23177902E-02
   13    3    0.37172719E-02 -0.57028913E-04
   14    3   -0.12014975E-02 -0.11772467E-02
   15    3    0.21906529E-03  0.52805906E-03
   16    3   -0.27892553E-02  0.25247592E-02
    1    4    0.99526349E-02  0.78074381E-03
    2    4    0.81120067E-02 -0.78031785E-03
    3    4    0.13992913E-01 -0.10536480E-02
    4    4    0.11953287E-01  0.26724689E-04
    5    4    0.14415385E+00 -0.13852894E-02
    6    4   -0.12786751E+00  0.93833988E-03
    7    4    0.14341505E+00 -0.10683728E-02
    8    4    0.16420137E+00  0.69102402E-03
    9    4    0.12065417E-02 -0.32930863E-02
   10    4    0.25006630E-02  0.35159734E-02
   11    4   -0.29468287E-02  0.20949170E-03
   12    4    0.12457685E-02  0.23416081E-03
   13    4   -0.33013661E-03  0.13833807E-02
   14    4   -0.25148720E-03 -0.93150986E-03
   15    4    0.17499083E-02 -0.22699062E-02
   16    4   -0.14296722E-02  0.63588131E-03
    1    5   -0.35414456E-01  0.27952384E-03
    2    5   -0.44535868E-01 -0.40090015E-03
    3    5    0.13187564E+00  0.39860338E-03
    4    5   -0.42880326E-01 -0.23132735E-03
    5    5   -0.16237319E-01  0.24310017E-03
    6    5    0.23166352E-01 -0.10538537E-02
    7    5   -0.13511264E-02  0.36558705E-02
    8    5    0.17812706E-01 -0.35314593E-02
    9    5   -0.51145191E-03 -0.89507538E-03
   10    5    0.19110245E-02  0.30964806E-02
   11    5   -0.66495353E-03 -0.11688474E-02
   12    5   -0.57711259E-03  0.30302148E-03
   13    5   -0.21070077E-02 -0.16644601E-02
   14    5   -0.57633736E-02 -0.48316777E-02
   15    5    0.59661099E-02 -0.19351725E-02
   16    5   -0.20539517E-02  0.66193413E-02
    1    6    0.19151510E-01  0.10645679E-02
    2    6   -0.71318304E-01 -0.99877550E-03
    3    6    0.71576670E-01 -0.20693592E-02
    4    6   -0.18994768E-01 -0.98556329E-03
    5    6    0.15989141E-01  0.91875009E-03
    6    6   -0.16040721E-01 -0.50232761E-03
    7    6    0.27922219E-02  0.48610010E-03
    8    6    0.21267394E-01 -0.32677497E-03
    9    6    0.46343323E-02 -0.70285878E-03
   10    6    0.54502149E-03 -0.11245938E-02
   11    6   -0.15147449E-02  0.11943465E-02
   12    6   -0.14827443E-03 -0.30921941E-02
   13    6    0.66883690E-02  0.49899920E-02
   14    6   -0.12886860E-02  0.61375136E-03
   15    6   -0.42343148E-02 -0.11653584E-02
   16    6   -0.73739222E-03 -0.36451696E-02
    1    7   -0.26410328E+00 -0.36224942E-03
    2    7   -0.13475349E+00 -0.75059912E-04
    3    7    0.14055481E+00  0.20185505E-03
    4    7   -0.13582007E+00 -0.30438760E-03
    5    7   -0.53629720E-02 -0.29734789E-02
    6    7   -0.81285306E-02 -0.72475854E-03
    7    7    0.63493093E-02  0.11098373E-02
    8    7   -0.65678072E-02  0.17564080E-02
    9    7   -0.19071132E-02  0.31527810E-03
   10    7   -0.20903778E-03 -0.17519006E-02
   11    7    0.83532276E-03  0.21127587E-03
   12    7    0.82955461E-03 -0.60508622E-04
   13    7   -0.67429071E-02 -0.47644581E-03
   14    7    0.12660873E-02  0.64177205E-03
   15    7    0.67958659E-03 -0.56311283E-04
   16    7    0.58585694E-02  0.13743138E-03
    1    8    0.22091519E-01 -0.27227285E-03
    2    8   -0.19063597E-01  0.27667553E-02
    3    8    0.70808983E-01  0.47033862E-03
    4    8   -0.71614226E-01  0.20195277E-03
    5    8    0.21484929E-01  0.26573280E-02
    6    8    0.17665613E-01  0.65334597E-03
    7    8   -0.55425923E-03 -0.17622347E-02
    8    8   -0.16400624E-01 -0.44762974E-03
    9    8   -0.38717614E-02 -0.15507889E-02
   10    8    0.58183939E-03 -0.73589335E-04
   11    8    0.17528631E-02  0.17725257E-02
   12    8   -0.92715243E-03  0.11985584E-02
   13    8    0.78982934E-03 -0.66327870E-02
   14    8    0.14355038E-02  0.28866826E-02
   15    8   -0.14643551E-02  0.29124425E-02
   16    8    0.16101191E-02  0.19864112E-02
    1    9    0.18324108E-02  0.88243775E-03
    2    9    0.21223785E-02 -0.25483716E-02
    3    9   -0.55987846E-05  0.14753514E-02
    4    9   -0.14521978E-02 -0.20915750E-03
    5    9   -0.26079825E-03  0.37754164E-03
    6    9   -0.32158627E-02  0.14155485E-02
    7    9    0.17236963E-02  0.10543547E-02
    8    9    0.20282400E-02 -0.42621891E-02
    9    9    0.13502170E-01  0.45135944E-03
   10    9    0.72334705E-02  0.29185483E-03
   11    9    0.14438326E-01 -0.12048551E-02
   12    9    0.94627926E-02  0.52703220E-04
   13    9   -0.40207264E-01  0.49465350E-03
   14    9    0.33960772E-01 -0.11108830E-02
   15    9    0.14069968E-01  0.34788553E-02
   16    9    0.34206307E-01 -0.19284085E-02
    1   10    0.11215241E-02 -0.25580050E-04
    2   10    0.16148937E-02  0.26456376E-03
    3   10   -0.15848950E-02 -0.10791039E-02
    4   10    0.12865084E-02  0.49611031E-03
    5   10    0.13577251E-02 -0.86054753E-03
    6   10   -0.11261459E-02 -0.67546911E-03
    7   10    0.54950995E-03  0.19302533E-02
    8   10   -0.30993527E-03  0.96513755E-04
    9   10    0.10491524E-01  0.28988279E-03
   10   10    0.12655114E-01  0.91521115E-04
   11   10    0.13135255E-01 -0.54920764E-03
   12   10    0.80714338E-02  0.68093233E-03
   13   10    0.14370114E+00  0.82116115E-03
   14   10    0.16398482E+00 -0.27335783E-03
   15   10    0.14436843E+00 -0.26920507E-02
   16   10   -0.12770215E+00  0.23085374E-03
    1   11   -0.74894740E-03 -0.22618488E-02
    2   11   -0.19265689E-02  0.10836801E-02
    3   11    0.29911687E-03  0.47269748E-03
    4   11    0.22731883E-03  0.47707029E-03
    5   11   -0.25270443E-02  0.54858395E-03
    6   11    0.38596434E-04 -0.16835739E-03
    7   11    0.47524619E-03  0.85530367E-03
    8   11    0.16224286E-02  0.38068693E-03
    9   11    0.76788346E-01  0.28435426E-03
   10   11    0.79341290E-01 -0.92844879E-03
   11   11    0.27956460E-01  0.52210751E-03
   12   11    0.77151014E-01 -0.10276712E-02
   13   11    0.14613400E-01 -0.28507657E-02
   14   11    0.33201987E-01  0.14994677E-02
   15   11   -0.39888879E-01  0.80599787E-03
   16   11    0.34804268E-01  0.21387798E-02
    1   12   -0.14286681E-03  0.13934374E-03
    2   12   -0.25976131E-02  0.21695211E-02
    3   12    0.12570739E-02 -0.66114213E-03
    4   12    0.17011995E-03  0.16561609E-03
    5   12   -0.57087639E-03  0.89409580E-03
    6   12    0.60307039E-03 -0.57910550E-03
    7   12    0.16659675E-03 -0.13704697E-02
    8   12    0.10059364E-02 -0.77102292E-03
    9   12    0.76021714E-02 -0.83214283E-03
   10   12    0.94002597E-02  0.77707381E-03
   11   12    0.13091145E-01  0.10714796E-02
   12   12    0.13456813E-01 -0.18795964E-04
   13   12    0.14371544E+00  0.13380246E-02
   14   12   -0.12790939E+00 -0.94527571E-03
   15   12    0.14447792E+00  0.10600255E-02
   16   12    0.16519259E+00 -0.66403566E-03
    1   13    0.63654214E-03 -0.81776967E-03
    2   13   -0.28440633E-02  0.90966226E-03
    3   13    0.78319203E-03 -0.11142935E-02
    4   13   -0.38761454E-03  0.15396251E-02
    5   13    0.11861008E-02 -0.21187074E-02
    6   13    0.24096747E-02 -0.11696321E-02
    7   13   -0.32240886E-03  0.88715583E-03
    8   13   -0.13095691E-02 -0.39859186E-03
    9   13   -0.35336893E-01 -0.29898607E-03
   10   13   -0.43334516E-01  0.43300230E-03
   11   13    0.13193400E+00 -0.40686389E-03
   12   13   -0.45035915E-01  0.21277831E-03
   13   13   -0.16690833E-01 -0.23918544E-03
   14   13    0.16137940E-01  0.10481267E-02
   15   13    0.14712108E-02 -0.36699754E-02
   16   13    0.21484421E-01  0.35279060E-02
    1   14   -0.31411649E-02 -0.28019177E-02
    2   14   -0.32848838E-03 -0.67208405E-03
    3   14    0.76642787E-03  0.15555272E-02
    4   14    0.13833250E-02 -0.24385109E-02
    5   14   -0.30121351E-02  0.13944784E-02
    6   14    0.40878966E-03  0.51228851E-03
    7   14    0.11739299E-03  0.13119103E-03
    8   14    0.14843142E-02  0.31269767E-03
    9   14    0.22819405E-01 -0.10471817E-02
   10   14   -0.71500707E-01  0.99249201E-03
   11   14    0.70402843E-01  0.20347038E-02
   12   14   -0.18436676E-01  0.10158519E-02
   13   14    0.23306246E-01 -0.92493144E-03
   14   14   -0.16859053E-01  0.49610922E-03
   15   14   -0.26048912E-02 -0.47990043E-03
   16   14    0.18058843E-01  0.34290000E-03
    1   15   -0.57778634E-03 -0.94659808E-03
    2   15    0.20982244E-02  0.21431094E-03
    3   15   -0.23452438E-03  0.50431060E-03
    4   15    0.10254148E-02 -0.14640121E-03
    5   15    0.23506908E-02 -0.26848147E-02
    6   15    0.22699860E-02  0.86192533E-03
    7   15   -0.11935403E-02 -0.29111344E-03
    8   15   -0.23223829E-02  0.34620939E-02
    9   15   -0.26536321E+00  0.36375439E-03
   10   15   -0.13487428E+00  0.44954471E-04
   11   15    0.14084591E+00 -0.15575517E-03
   12   15   -0.13382011E+00  0.29838637E-03
   13   15   -0.75689909E-02  0.29385968E-02
   14   15   -0.48042959E-02  0.70696689E-03
   15   15    0.61121259E-02 -0.11152239E-02
   16   15   -0.63480630E-02 -0.17477633E-02
    1   16    0.54170577E-02  0.20671134E-02
    2   16    0.62584764E-03  0.51272458E-03
    3   16   -0.25400463E-02  0.63727440E-03
    4   16    0.11737583E-02  0.98264852E-03
    5   16    0.29024576E-02  0.66749801E-03
    6   16   -0.68270333E-03 -0.32960300E-03
    7   16   -0.26510400E-02 -0.24858675E-02
    8   16   -0.25229840E-02  0.12020502E-02
    9   16    0.19941864E-01  0.32563932E-03
   10   16   -0.18381315E-01 -0.27615872E-02
   11   16    0.71208005E-01 -0.48047487E-03
   12   16   -0.71193296E-01 -0.19646386E-03
   13   16    0.17869934E-01 -0.26231961E-02
   14   16    0.21617609E-01 -0.66719551E-03
   15   16    0.74137936E-03  0.17301208E-02
   16   16   -0.16468423E-01  0.46005373E-03

   -1   -1    1
    1    1    0.58086703E-02 -0.75186854E-03
    2    1   -0.12517165E+00  0.16509369E-02
    3    1   -0.11264644E+00  0.14247640E-02
    4    1   -0.12278604E+00 -0.28489822E-02
    5    1    0.19751744E-01  0.49873917E-03
    6    1   -0.42581168E-01  0.46789675E-03
    7    1    0.86292842E-02  0.36355984E-03
    8    1   -0.42527049E-01 -0.87051820E-04
    9    1   -0.11431905E-02 -0.15744532E-03
   10    1   -0.17046132E-02 -0.11045292E-02
   11    1   -0.23165681E-03  0.94714156E-03
   12    1    0.57612052E-03 -0.31090711E-02
   13    1   -0.48416883E-03 -0.12612834E-02
   14    1   -0.21321121E-02 -0.12131902E-02
   15    1   -0.44815899E-03 -0.33194685E-03
   16    1    0.14362642E-02  0.19137759E-03
    1    2   -0.49906782E-01  0.60158299E-03
    2    2    0.54108951E-02  0.49630989E-03
    3    2   -0.51809006E-01 -0.94147397E-03
    4    2   -0.11485388E+00  0.66846941E-03
    5    2   -0.42940667E-01  0.76553406E-04
    6    2    0.19214118E-01 -0.89635008E-03
    7    2    0.84015862E-02  0.21612918E-03
    8    2   -0.41888172E-01 -0.17792868E-02
    9    2   -0.12185947E-02  0.11123501E-02
   10    2    0.93821915E-04  0.12136231E-02
   11    2   -0.30602332E-03 -0.21096501E-02
   12    2    0.10442364E-02 -0.75970064E-03
   13    2   -0.10561552E-02 -0.18565548E-02
   14    2   -0.69061012E-03  0.55628239E-03
   15    2   -0.28229422E-03  0.50086599E-03
   16    2    0.22949464E-03  0.55242014E-03
    1    3   -0.11417023E+00 -0.15407360E-02
    2    3   -0.12228793E+00  0.16126574E-02
    3    3    0.53934491E-02 -0.38741444E-03
    4    3   -0.12346584E+00 -0.67780264E-03
    5    3   -0.41416074E-01  0.62286821E-03
    6    3   -0.42163494E-01 -0.97682873E-03
    7    3   -0.27682813E-02  0.76902210E-04
    8    3   -0.41860163E-01  0.12329772E-02
    9    3    0.43314580E-03 -0.43849611E-04
   10    3    0.67573295E-03  0.10227029E-02
   11    3    0.90706267E-03  0.38775537E-03
   12    3   -0.74479088E-03  0.43981951E-03
   13    3   -0.12361266E-02 -0.76404754E-03
   14    3    0.16324222E-02 -0.27620258E-03
   15    3   -0.30191645E-03  0.40685638E-03
   16    3    0.61915300E-03  0.86661179E-03
    1    4   -0.52747628E-01  0.94136250E-03
    2    4   -0.11238255E+00  0.42184697E-03
    3    4   -0.52610394E-01 -0.68416604E-03
    4    4    0.60926174E-02 -0.11432078E-02
    5    4   -0.42923709E-01 -0.51330826E-03
    6    4   -0.43290746E-01 -0.80904857E-03
    7    4    0.94133274E-02  0.12769111E-02
    8    4    0.20420660E-01  0.26676850E-04
    9    4    0.13294456E-02  0.28686429E-03
   10    4    0.82401447E-04 -0.12726920E-04
   11    4    0.79319308E-03  0.16265930E-02
   12    4   -0.10355264E-02 -0.11306998E-02
   13    4    0.14248662E-02  0.51112111E-03
   14    4    0.17302498E-03  0.22162504E-02
   15    4   -0.51950667E-03 -0.14863716E-03
   16    4    0.89237036E-03  0.48126915E-03
    1    5    0.14090773E+00 -0.46750496E-03
    2    5   -0.13404437E+00  0.32866671E-02
    3    5   -0.26436391E+00 -0.67937698E-03
    4    5   -0.13569659E+00 -0.18832918E-02
    5    5    0.50739132E-02  0.32059558E-04
    6    5   -0.19185183E+00  0.51091639E-03
    7    5   -0.24195387E-01  0.30532979E-02
    8    5   -0.18639000E+00 -0.35970408E-02
    9    5    0.40388729E-03  0.14798418E-02
   10    5   -0.39789405E-03  0.18124628E-02
   11    5    0.97792936E-03  0.28593881E-02
   12    5    0.25738665E-02 -0.14701269E-02
   13    5   -0.51803582E-03 -0.35671596E-03
   14    5   -0.37464227E-03  0.22769928E-03
   15    5   -0.63160905E-03  0.19016186E-02
   16    5    0.18234115E-02  0.66441328E-03
    1    6    0.72598150E-01 -0.26769750E-02
    2    6   -0.71792169E-01  0.45717013E-04
    3    6    0.19779448E-01  0.46488298E-03
    4    6   -0.18219619E-01 -0.12665745E-03
    5    6   -0.23851679E-01  0.65000561E-03
    6    6    0.47971390E-02  0.19271876E-02
    7    6   -0.28929563E-01 -0.77555971E-03
    8    6   -0.28496247E-01  0.30679392E-02
    9    6    0.84668937E-03 -0.10151018E-02
   10    6   -0.90222624E-03  0.45025373E-03
   11    6   -0.15738951E-02 -0.11377529E-03
   12    6   -0.67294559E-03  0.68455990E-04
   13    6    0.23426234E-02 -0.57116926E-03
   14    6    0.62801396E-03  0.56119153E-03
   15    6   -0.45905143E-03 -0.82955206E-03
   16    6   -0.42393395E-03  0.18267940E-02
    1    7    0.13103200E+00  0.68634698E-03
    2    7   -0.43937839E-01 -0.33681747E-03
    3    7   -0.35478011E-01  0.22475913E-03
    4    7   -0.43538102E-01 -0.84889923E-03
    5    7   -0.27723040E-01 -0.42060809E-02
    6    7   -0.18762747E+00  0.72857454E-03
    7    7    0.50467934E-02 -0.20132486E-03
    8    7   -0.18787454E+00  0.15541798E-02
    9    7    0.50145241E-03 -0.26585571E-02
   10    7   -0.21148725E-02 -0.22780096E-04
   11    7   -0.18843963E-03 -0.90672451E-03
   12    7   -0.85690328E-03 -0.56931691E-03
   13    7   -0.95602030E-03 -0.16648875E-02
   14    7    0.14975714E-02  0.24919819E-02
   15    7    0.99087799E-03  0.13784261E-02
   16    7   -0.11392729E-02 -0.44394865E-04
    1    8    0.69909102E-01  0.21450964E-02
    2    8   -0.19367720E-01 -0.86799220E-03
    3    8    0.21350663E-01  0.20299493E-03
    4    8   -0.71289632E-01 -0.63790253E-04
    5    8   -0.29238552E-01  0.29711765E-02
    6    8   -0.23291330E-01 -0.35052922E-02
    7    8   -0.26925125E-01 -0.14859867E-02
    8    8    0.52274584E-02 -0.63690496E-03
    9    8   -0.65491446E-03  0.32653909E-02
   10    8   -0.17253253E-03 -0.16274001E-03
   11    8    0.18045718E-02 -0.27709091E-02
   12    8    0.85420000E-03 -0.12304757E-02
   13    8   -0.35863596E-02 -0.15189061E-02
   14    8   -0.14527997E-02 -0.21883146E-02
   15    8    0.18942456E-02 -0.10221617E-02
   16    8   -0.41267836E-04 -0.10662543E-02
    1    9    0.85033238E-03 -0.30693169E-03
    2    9    0.45550809E-02 -0.20268412E-02
    3    9   -0.32140430E-02 -0.79834589E-03
    4    9    0.23015033E-02  0.68852354E-03
    5    9    0.85327329E-03 -0.10732102E-02
    6    9    0.21148015E-02 -0.13176728E-02
    7    9   -0.17922759E-03 -0.64823830E-03
    8    9   -0.15023287E-02  0.25529749E-03
    9    9    0.56603537E-02  0.76935247E-03
   10    9   -0.12134700E+00 -0.16602261E-02
   11    9   -0.11439125E+00 -0.14138598E-02
   12    9   -0.12373802E+00  0.28590036E-02
   13    9    0.19939597E-01 -0.49155810E-03
   14    9   -0.42568031E-01 -0.48929554E-03
   15    9    0.83144719E-02 -0.36830548E-03
   16    9   -0.42584134E-01  0.10395858E-03
    1   10   -0.67616594E-03  0.30141169E-02
    2   10   -0.32381333E-03  0.35195536E-03
    3   10    0.20206109E-02 -0.47241355E-03
    4   10   -0.50145627E-03 -0.29844244E-02
    5   10    0.24744271E-02 -0.11580549E-02
    6   10    0.71766919E-03 -0.60552785E-03
    7   10   -0.14768329E-02 -0.14070197E-02
    8   10   -0.89599068E-04  0.19874964E-02
    9   10   -0.53681845E-01 -0.62511463E-03
   10   10    0.59949874E-02 -0.48733262E-03
   11   10   -0.51739400E-01  0.93625575E-03
   12   10   -0.11211258E+00 -0.68438259E-03
   13   10   -0.42195148E-01 -0.81271275E-04
   14   10    0.20414930E-01  0.94225368E-03
   15   10    0.85448199E-02 -0.21880425E-03
   16   10   -0.43189704E-01  0.17673067E-02
    1   11    0.22632763E-02  0.13049864E-02
    2   11   -0.23088858E-02  0.13501036E-02
    3   11    0.34490467E-03  0.10107849E-02
    4   11   -0.91592769E-03 -0.15499666E-02
    5   11   -0.20598587E-03 -0.14944241E-02
    6   11   -0.69902420E-03 -0.10831592E-03
    7   11   -0.76565777E-03 -0.10623707E-03
    8   11    0.32895081E-03  0.16200072E-02
    9   11   -0.11281929E+00  0.15282105E-02
   10   11   -0.12430544E+00 -0.16034686E-02
   11   11    0.60139007E-02  0.41592903E-03
   12   11   -0.12310989E+00  0.65382973E-03
   13   11   -0.42144016E-01 -0.63089427E-03
   14   11   -0.41394974E-01  0.96342125E-03
   15   11   -0.32826313E-02 -0.81523293E-04
   16   11   -0.41708140E-01 -0.12109731E-02
    1   12   -0.32121775E-02 -0.34993752E-02
    2   12    0.44559464E-03  0.27439708E-02
    3   12    0.91126686E-03  0.17075030E-02
    4   12    0.76937715E-03 -0.51101979E-03
    5   12   -0.55944823E-05  0.12590450E-02
    6   12   -0.49485642E-04  0.92951705E-03
    7   12   -0.12351399E-02 -0.10232338E-04
    8   12   -0.85778941E-03  0.16742119E-02
    9   12   -0.50859642E-01 -0.88758724E-03
   10   12   -0.11459203E+00 -0.41396367E-03
   11   12   -0.50961860E-01  0.65315224E-03
   12   12    0.52687342E-02  0.11341559E-02
   13   12   -0.42225459E-01  0.50590291E-03
   14   12   -0.41840359E-01  0.77318600E-03
   15   12    0.75003372E-02 -0.12672221E-02
   16   12    0.19251896E-01 -0.44453174E-04
    1   13   -0.11977362E-02  0.11039421E-02
    2   13    0.65064733E-03  0.35987949E-02
    3   13   -0.25310071E-02  0.20539762E-02
    4   13   -0.23131949E-02 -0.30077208E-02
    5   13    0.25411620E-03 -0.47740380E-03
    6   13    0.28116450E-02 -0.40046606E-02
    7   13   -0.68106763E-02 -0.18430731E-02
    8   13    0.61042493E-03  0.73314971E-02
    9   13    0.14053226E+00  0.49044195E-03
   10   13   -0.13557316E+00 -0.33359047E-02
   11   13   -0.26517020E+00  0.68326300E-03
   12   13   -0.13391783E+00  0.18937738E-02
   13   13    0.49527713E-02 -0.29030621E-04
   14   13   -0.18518894E+00 -0.51701902E-03
   15   13   -0.27937408E-01 -0.30486159E-02
   16   13   -0.19062127E+00  0.35937962E-02
    1   14   -0.18500137E-02  0.10930582E-02
    2   14    0.14038690E-02  0.19784635E-03
    3   14    0.31987738E-02 -0.82959527E-03
    4   14    0.83123795E-03  0.13194418E-02
    5   14   -0.41796645E-02  0.38685589E-02
    6   14   -0.75915327E-03  0.81539520E-04
    7   14    0.41506692E-02 -0.95578006E-03
    8   14   -0.28936525E-03 -0.37057742E-02
    9   14    0.69390590E-01  0.26660863E-02
   10   14   -0.71068943E-01 -0.32341079E-04
   11   14    0.22182974E-01 -0.44809774E-03
   12   14   -0.19302757E-01  0.10296134E-03
   13   14   -0.30170876E-01 -0.65902270E-03
   14   14    0.51826940E-02 -0.19100076E-02
   15   14   -0.25095790E-01  0.74969536E-03
   16   14   -0.23647472E-01 -0.30792454E-02
    1   15    0.28073302E-02 -0.10147138E-02
    2   15    0.13315460E-02 -0.77255496E-03
    3   15    0.81085675E-03 -0.58601275E-03
    4   15    0.10382382E-03 -0.61235327E-03
    5   15    0.75072511E-02  0.16018996E-02
    6   15   -0.44619664E-02  0.13154149E-02
    7   15   -0.11930721E-02  0.12640840E-02
    8   15   -0.17907456E-02 -0.18176035E-02
    9   15    0.13267629E+00 -0.66997391E-03
   10   15   -0.43948245E-01  0.35468852E-03
   11   15   -0.35158171E-01 -0.26724246E-03
   12   15   -0.44319737E-01  0.87344392E-03
   13   15   -0.24456065E-01  0.42115726E-02
   14   15   -0.18936677E+00 -0.75349062E-03
   15   15    0.49315129E-02  0.25293532E-03
   16   15   -0.18908475E+00 -0.15804684E-02
    1   16   -0.40050753E-03  0.10917972E-03
    2   16    0.36011400E-03 -0.12768661E-02
    3   16   -0.16248954E-03 -0.38529734E-03
    4   16   -0.37236451E-03 -0.48712674E-03
    5   16    0.17238987E-02 -0.78126498E-02
    6   16    0.74563145E-03  0.26551202E-02
    7   16    0.18041798E-02  0.28050901E-02
    8   16   -0.72163443E-04 -0.69880030E-03
    9   16    0.72067826E-01 -0.21771125E-02
   10   16   -0.18147279E-01  0.87703331E-03
   11   16    0.20617777E-01 -0.19003592E-03
   12   16   -0.71521716E-01  0.49840808E-04
   13   16   -0.24772865E-01 -0.29749147E-02
   14   16   -0.28829394E-01  0.35328649E-02
   15   16   -0.27058367E-01  0.15057971E-02
   16   16    0.47321634E-02  0.63626451E-03

   -1   -1    2
    1    1    0.28435782E-01  0.18446331E-02
    2    1    0.78014005E-01 -0.40391600E-02
    3    1    0.78009175E-01  0.32816958E-02
    4    1    0.78008698E-01 -0.38019102E-03
    5    1   -0.30837991E-02  0.16289250E-03
    6    1   -0.41958172E-01 -0.86032587E-03
    7    1   -0.41949752E-01  0.56211480E-03
    8    1   -0.41954734E-01 -0.15820708E-03
    9    1   -0.69690323E-03 -0.84563549E-03
   10    1   -0.53832814E-02 -0.95340519E-03
   11    1   -0.17279518E-02 -0.46211114E-02
   12    1    0.19278814E-02  0.27026259E-02
   13    1   -0.55278728E-03 -0.93572749E-03
   14    1   -0.11294847E-02 -0.84562076E-03
   15    1   -0.40896806E-03 -0.15481515E-02
   16    1    0.30274102E-03 -0.13001153E-03
    1    2    0.13177525E-01  0.32568206E-02
    2    2    0.13080740E-01  0.25829356E-03
    3    2    0.83210739E-02 -0.11835796E-02
    4    2    0.91618789E-02 -0.15951300E-02
    5    2    0.84268979E-02 -0.20102648E-02
    6    2    0.19656789E-01 -0.13353456E-03
    7    2   -0.42144977E-01  0.13091836E-02
    8    2   -0.43022387E-01  0.10714784E-02
    9    2    0.40528214E-02 -0.23052877E-03
   10    2    0.35824835E-04  0.63640268E-03
   11    2   -0.12158410E-03  0.30235237E-02
   12    2   -0.15830802E-02 -0.20967182E-02
   13    2   -0.11784424E-02  0.71793680E-03
   14    2    0.45957958E-03  0.13967471E-03
   15    2    0.75223958E-03 -0.14290336E-02
   16    2    0.15352541E-02  0.11019741E-02
    1    3    0.13187174E-01 -0.42869888E-02
    2    3    0.91669256E-02  0.12012181E-02
    3    3    0.13074467E-01  0.39057506E-03
    4    3    0.83290428E-02  0.15828510E-02
    5    3    0.84277561E-02 -0.11358440E-02
    6    3   -0.43037309E-01  0.37311596E-03
    7    3    0.19665340E-01  0.55358662E-03
    8    3   -0.42144390E-01  0.63011163E-03
    9    3    0.28435589E-03  0.35481914E-02
   10    3    0.11202029E-02 -0.21745073E-02
   11    3    0.10990475E-03  0.56782117E-03
   12    3   -0.43875710E-04  0.31403630E-03
   13    3   -0.74745911E-03  0.28610313E-03
   14    3    0.64195439E-03  0.89733579E-03
   15    3    0.79662331E-03 -0.19427783E-03
   16    3    0.95122746E-03 -0.54289507E-03
    1    4    0.13185343E-01 -0.51605016E-03
    2    4    0.83208823E-02  0.15016768E-02
    3    4    0.91724143E-02 -0.15064570E-02
    4    4    0.13084371E-01  0.33997327E-03
    5    4    0.84236371E-02 -0.15679214E-02
    6    4   -0.42134888E-01  0.43859085E-03
    7    4   -0.43034441E-01  0.12664866E-02
    8    4    0.19652431E-01  0.19818886E-03
    9    4   -0.34876925E-02 -0.39973407E-02
   10    4    0.26628612E-02  0.30954669E-02
   11    4    0.11949047E-02  0.60663387E-03
   12    4    0.17912330E-03  0.71120053E-03
   13    4   -0.31247733E-03  0.11588520E-02
   14    4    0.61755984E-04 -0.12305544E-02
   15    4    0.85097630E-03  0.21022964E-03
   16    4    0.11383782E-02  0.48008539E-03
    1    5   -0.10496566E+00  0.12797192E-03
    2    5   -0.24202485E-01  0.10795961E-02
    3    5   -0.24209918E-01  0.41109644E-03
    4    5   -0.24205809E-01  0.74835387E-03
    5    5    0.59063601E-02 -0.10741426E-02
    6    5   -0.67979308E-02 -0.44252470E-02
    7    5   -0.67956712E-02  0.68529892E-02
    8    5   -0.67896180E-02  0.12151212E-02
    9    5    0.13451269E-02  0.21449055E-03
   10    5    0.22494707E-02  0.33402890E-03
   11    5    0.19180791E-02  0.67064499E-03
   12    5    0.15810103E-02  0.53262317E-05
   13    5   -0.21165747E-02 -0.21086887E-02
   14    5   -0.40317651E-02 -0.58419377E-03
   15    5    0.16052843E-02 -0.62190790E-02
   16    5    0.72437900E-02  0.50575428E-02
    1    6   -0.23877097E-01  0.54945789E-03
    2    6   -0.10445167E+00  0.22390891E-03
    3    6   -0.23222951E-01 -0.40426439E-04
    4    6   -0.23948217E-01  0.37128170E-03
    5    6    0.53575063E-03  0.45332919E-02
    6    6   -0.16652118E-01 -0.80629725E-04
    7    6    0.19000033E-01 -0.52689691E-02
    8    6    0.20303571E-01 -0.20944216E-02
    9    6   -0.17724085E-03 -0.58055128E-03
   10    6   -0.39934632E-03  0.15645623E-06
   11    6   -0.16756545E-02 -0.85549357E-03
   12    6    0.80263625E-03  0.14829200E-02
   13    6    0.30514069E-02 -0.65785245E-04
   14    6    0.93740946E-03  0.29123461E-03
   15    6   -0.24801618E-02  0.36135132E-02
   16    6   -0.43350556E-02 -0.29137290E-02
    1    7   -0.23879701E-01 -0.61102557E-03
    2    7   -0.23946881E-01 -0.68071547E-03
    3    7   -0.10445520E+00 -0.27102797E-03
    4    7   -0.23230055E-01 -0.11019204E-02
    5    7    0.53223823E-03 -0.65689571E-02
    6    7    0.20312088E-01  0.53619337E-02
    7    7   -0.16674648E-01 -0.11654781E-03
    8    7    0.18997243E-01  0.21840163E-02
    9    7   -0.75676642E-03  0.31806871E-05
   10    7    0.66688478E-04  0.18103698E-02
   11    7   -0.64833947E-03  0.24565055E-03
   12    7   -0.19986062E-02 -0.12576919E-03
   13    7   -0.24986881E-02  0.54830604E-02
   14    7    0.30661705E-02 -0.29640887E-02
   15    7    0.92895008E-03  0.29813790E-03
   16    7   -0.24389365E-02 -0.37824898E-02
    1    8   -0.23883540E-01 -0.27051395E-04
    2    8   -0.23233598E-01 -0.77026091E-03
    3    8   -0.23949487E-01  0.50238142E-04
    4    8   -0.10445306E+00 -0.27805919E-04
    5    8    0.53388910E-03 -0.10245847E-02
    6    8    0.18990433E-01  0.21255743E-02
    7    8    0.20309221E-01 -0.20486703E-02
    8    8   -0.16668008E-01 -0.80653920E-04
    9    8   -0.13303813E-02 -0.11601582E-02
   10    8   -0.27350016E-02 -0.11817978E-02
   11    8   -0.25306122E-03  0.75408355E-03
   12    8   -0.89655771E-03 -0.25064658E-03
   13    8   -0.80513468E-02 -0.56201708E-02
   14    8    0.49608850E-02  0.36630411E-02
   15    8    0.31141245E-02  0.44849424E-02
   16    8    0.92061630E-03  0.27680304E-03
    1    9   -0.15835205E-02 -0.19831995E-02
    2    9    0.48609468E-02 -0.12192720E-02
    3    9    0.11935420E-02 -0.48745728E-02
    4    9   -0.24622315E-02  0.24490840E-02
    5    9    0.81026988E-03 -0.79329341E-03
    6    9    0.18979371E-02 -0.43951343E-03
    7    9    0.11954483E-02 -0.11601832E-02
    8    9    0.48377880E-03  0.25770227E-03
    9    9    0.27293346E-01 -0.18660682E-02
   10    9    0.77749468E-01  0.40462760E-02
   11    9    0.77756721E-01 -0.32684522E-02
   12    9    0.77756380E-01  0.38119657E-03
   13    9   -0.29456621E-02 -0.19484952E-03
   14    9   -0.41550446E-01  0.87656683E-03
   15    9   -0.41560306E-01 -0.53733248E-03
   16    9   -0.41564980E-01  0.16589481E-03
    1   10   -0.26898249E-02  0.45461425E-03
    2   10   -0.11945914E-02  0.41998113E-04
    3   10    0.24684971E-03  0.22186249E-02
    4   10    0.16834917E-02 -0.11751871E-02
    5   10    0.13208350E-02  0.77928511E-03
    6   10    0.16491612E-03  0.45454877E-03
    7   10   -0.60015153E-03 -0.50010021E-03
    8   10   -0.14016822E-02  0.29201806E-03
    9   10    0.13863336E-01 -0.32613244E-02
   10   10    0.12485271E-01 -0.27070152E-03
   11   10    0.92170028E-02  0.12146225E-02
   12   10    0.83827038E-02  0.15774742E-02
   13   10    0.84888907E-02  0.20151246E-02
   14   10    0.19970180E-01  0.15703239E-03
   15   10   -0.42973001E-01 -0.13252781E-02
   16   10   -0.42074851E-01 -0.10889764E-02
    1   11    0.10891383E-02  0.42228819E-02
    2   11   -0.10218328E-02 -0.12504166E-02
    3   11   -0.12634141E-02 -0.32131405E-04
    4   11    0.16500708E-03 -0.48747264E-03
    5   11    0.88841921E-03  0.34811644E-03
    6   11   -0.51728268E-03  0.96329556E-04
    7   11   -0.16945465E-03  0.11713386E-03
    8   11   -0.80277872E-03  0.39048808E-03
    9   11    0.13862711E-01  0.42835527E-02
   10   11    0.83886713E-02 -0.11888215E-02
   11   11    0.12474184E-01 -0.42170389E-03
   12   11    0.92289021E-02 -0.15742906E-02
   13   11    0.84903089E-02  0.11378165E-02
   14   11   -0.42080489E-01 -0.42103571E-03
   15   11    0.19974760E-01 -0.51632391E-03
   16   11   -0.42968026E-01 -0.63718271E-03
    1   12    0.48610190E-02 -0.33229788E-02
    2   12   -0.25395450E-02  0.22916129E-02
    3   12   -0.10985787E-02  0.15320200E-02
    4   12   -0.13329095E-02  0.11176512E-03
    5   12    0.45329320E-03  0.12203365E-02
    6   12    0.81521836E-04 -0.29213804E-03
    7   12   -0.72109067E-03 -0.59505847E-03
    8   12   -0.51112087E-03  0.79109087E-03
    9   12    0.13861045E-01  0.51047133E-03
   10   12    0.92193501E-02 -0.15006852E-02
   11   12    0.83967552E-02  0.15112738E-02
   12   12    0.12483285E-01 -0.33365588E-03
   13   12    0.84865728E-02  0.15756695E-02
   14   12   -0.42954064E-01 -0.42426047E-03
   15   12   -0.42082796E-01 -0.12930040E-02
   16   12    0.19962343E-01 -0.18845766E-03
    1   13   -0.46298396E-04  0.87535140E-03
    2   13   -0.11555907E-02  0.89239325E-03
    3   13   -0.81843454E-03  0.12238118E-02
    4   13   -0.48135087E-03  0.55886096E-03
    5   13    0.34777255E-02 -0.14165028E-02
    6   13    0.53225109E-02  0.66875874E-04
    7   13   -0.31239285E-03 -0.55701480E-02
    8   13   -0.59508982E-02  0.57053049E-02
    9   13   -0.10430825E+00 -0.14099467E-03
   10   13   -0.23643691E-01 -0.10912006E-02
   11   13   -0.23655917E-01 -0.42281889E-03
   12   13   -0.23652169E-01 -0.75982860E-03
   13   13    0.65965205E-02  0.10297364E-02
   14   13   -0.61455805E-02  0.44239463E-02
   15   13   -0.61463055E-02 -0.68550276E-02
   16   13   -0.61390785E-02 -0.12156932E-02
    1   14   -0.28519057E-04 -0.66801723E-03
    2   14   -0.43376852E-03 -0.40568097E-03
    3   14    0.45646830E-03 -0.77066437E-03
    4   14   -0.20216027E-02  0.15669222E-03
    5   14   -0.49193427E-02 -0.10105138E-02
    6   14    0.46614627E-04  0.75724784E-03
    7   14    0.23738043E-02  0.22523140E-02
    8   14    0.42441012E-02 -0.16549000E-02
    9   14   -0.23963493E-01 -0.56314813E-03
   10   14   -0.10485942E+00 -0.23517862E-03
   11   14   -0.24549061E-01  0.54485369E-04
   12   14   -0.23862988E-01 -0.38138170E-03
   13   14   -0.40783101E-03 -0.45377941E-02
   14   14   -0.16186941E-01  0.53638293E-04
   15   14    0.20274089E-01  0.52748308E-02
   16   14    0.18926501E-01  0.21157233E-02
    1   15    0.55514314E-03 -0.88232793E-04
    2   15   -0.12889143E-02  0.48823747E-03
    3   15   -0.18812164E-03 -0.15665740E-03
    4   15    0.78147608E-03 -0.43137688E-04
    5   15    0.63015264E-03  0.45399505E-02
    6   15   -0.31606514E-02 -0.17025130E-02
    7   15    0.53091019E-04  0.76546957E-03
    8   15    0.23322234E-02 -0.51419580E-02
    9   15   -0.23970198E-01  0.58700465E-03
   10   15   -0.23857803E-01  0.67126648E-03
   11   15   -0.10485906E+00  0.26502518E-03
   12   15   -0.24558292E-01  0.11085006E-02
   13   15   -0.40995793E-03  0.65727953E-02
   14   15    0.18939146E-01 -0.53187024E-02
   15   15   -0.16208179E-01  0.62072440E-04
   16   15    0.20271892E-01 -0.21790002E-02
    1   16    0.11288887E-02 -0.12512914E-02
    2   16    0.15123174E-02 -0.10931148E-02
    3   16   -0.96357271E-03 -0.57390535E-03
    4   16    0.60226370E-04 -0.65285600E-03
    5   16    0.61829846E-02 -0.65632020E-02
    6   16   -0.50707498E-02  0.23060430E-02
    7   16   -0.32055320E-02  0.57442779E-02
    8   16    0.61447435E-04  0.74395837E-03
    9   16   -0.23974177E-01  0.23710762E-04
   10   16   -0.24555847E-01  0.78367269E-03
   11   16   -0.23866557E-01 -0.52863631E-04
   12   16   -0.10485688E+00  0.11267955E-04
   13   16   -0.40820194E-03  0.10117456E-02
   14   16    0.20267187E-01 -0.21416500E-02
   15   16    0.18933874E-01  0.20708138E-02
   16   16   -0.16201349E-01  0.81154900E-04

   -1    0   -1
    1    1    0.11968680E-01 -0.28236923E-03
    2    1    0.12660017E-01  0.14589501E-03
    3    1    0.80144249E-02  0.44655939E-03
    4    1    0.10291717E-01  0.24715822E-03
    5    1   -0.39970624E-01 -0.44962120E-03
    6    1    0.14535124E-01  0.93211974E-03
    7    1    0.34294461E-01 -0.21669271E-03
    8    1    0.34569206E-01 -0.10092290E-02
    9    1    0.12642419E-02 -0.72757812E-03
   10    1    0.30527336E-02  0.22832236E-03
   11    1   -0.76972791E-03  0.17156858E-02
   12    1   -0.26121171E-02 -0.33822653E-02
   13    1   -0.22594309E-03  0.61122535E-03
   14    1   -0.43657496E-03 -0.69023470E-03
   15    1   -0.61604738E-03  0.53900607E-03
   16    1   -0.16503561E-02 -0.57409613E-03
    1    2    0.78984617E-01 -0.16046602E-02
    2    2    0.27777639E-01 -0.69425063E-03
    3    2    0.78743305E-01  0.39877186E-03
    4    2    0.76535446E-01  0.27043784E-03
    5    2    0.14010281E-01  0.19851804E-02
    6    2   -0.40205080E-01 -0.36646809E-05
    7    2    0.33786931E-01 -0.13532304E-02
    8    2    0.35341493E-01 -0.66151966E-03
    9    2   -0.43081426E-02  0.59777422E-03
   10    2   -0.61501355E-04  0.37984988E-03
   11    2    0.95354407E-03 -0.17130819E-02
   12    2    0.25437740E-02  0.27014149E-02
   13    2    0.32781983E-02  0.37907303E-03
   14    2    0.62857881E-03  0.11742147E-03
   15    2   -0.23775839E-02  0.21408373E-02
   16    2   -0.82685821E-03 -0.15845521E-02
    1    3    0.99456693E-02  0.13554927E-02
    2    3    0.13994294E-01 -0.67327578E-03
    3    3    0.11945517E-01  0.14449678E-03
    4    3    0.81163182E-02 -0.59935393E-03
    5    3    0.14415077E+00 -0.96921841E-03
    6    3    0.14341176E+00 -0.14601717E-02
    7    3    0.16421924E+00  0.21108704E-03
    8    3   -0.12787847E+00  0.41757966E-03
    9    3    0.36450272E-03 -0.47191940E-02
   10    3   -0.30198341E-02 -0.24205441E-03
   11    3    0.92717994E-03 -0.18975466E-03
   12    3    0.19955536E-02  0.28317600E-02
   13    3   -0.65312226E-03  0.63165869E-03
   14    3    0.21650817E-02 -0.14480902E-02
   15    3   -0.10319568E-02  0.15059571E-02
   16    3    0.14852284E-03 -0.15143990E-04
    1    4    0.70640632E-02  0.31719001E-03
    2    4    0.13962382E-01  0.89736530E-03
    3    4    0.94267416E-02 -0.50679837E-03
    4    4    0.12758253E-01  0.15478487E-04
    5    4    0.14417394E+00 -0.37809908E-03
    6    4    0.14349521E+00  0.22960395E-02
    7    4   -0.12807819E+00 -0.76122448E-03
    8    4    0.16540573E+00 -0.24414164E-03
    9    4    0.13774589E-02  0.31801815E-02
   10    4    0.29805138E-03 -0.14494775E-03
   11    4   -0.69306466E-03 -0.29189799E-03
   12    4    0.25941031E-03 -0.88645654E-03
   13    4   -0.15283983E-02 -0.11550165E-03
   14    4    0.57885265E-03  0.46920569E-03
   15    4   -0.27153648E-03 -0.26496367E-03
   16    4   -0.18650139E-03 -0.20711446E-02
    1    5   -0.35411973E-01  0.40409713E-03
    2    5    0.13187403E+00  0.60492311E-03
    3    5   -0.42878245E-01 -0.36107926E-03
    4    5   -0.44528539E-01 -0.52531949E-03
    5    5   -0.16231219E-01  0.29699086E-03
    6    5   -0.13411364E-02  0.32927927E-02
    7    5    0.17815410E-01 -0.33456587E-02
    8    5    0.23166061E-01 -0.87265473E-03
    9    5   -0.44811590E-03 -0.95693607E-03
   10    5   -0.56206454E-03 -0.12661795E-02
   11    5   -0.34562012E-03  0.65363595E-03
   12    5    0.15565055E-02  0.28671826E-02
   13    5   -0.20822130E-02 -0.16900154E-02
   14    5    0.57866025E-02 -0.17515293E-02
   15    5   -0.22509239E-02  0.62412765E-02
   16    5   -0.53840383E-02 -0.46300878E-02
    1    6   -0.26411023E+00  0.86532901E-03
    2    6    0.14054018E+00  0.93880724E-03
    3    6   -0.13581840E+00 -0.82245077E-03
    4    6   -0.13474452E+00 -0.57879814E-03
    5    6   -0.53627239E-02 -0.24165456E-02
    6    6    0.63494066E-02 -0.35124911E-03
    7    6   -0.65712431E-02  0.21982544E-02
    8    6   -0.81321119E-02 -0.28142185E-03
    9    6   -0.12972805E-02 -0.29149177E-03
   10    6    0.11997897E-02 -0.15632384E-03
   11    6    0.14341516E-02  0.10512500E-02
   12    6   -0.13236957E-02 -0.23592858E-02
   13    6   -0.64625802E-02 -0.75673445E-03
   14    6   -0.41344574E-04  0.66618892E-03
   15    6    0.48218556E-02 -0.13360916E-02
   16    6    0.27326543E-02  0.16644872E-02
    1    7    0.22083448E-01 -0.98165310E-03
    2    7    0.70809958E-01  0.10935776E-02
    3    7   -0.71616587E-01 -0.98697365E-04
    4    7   -0.19058441E-01  0.24644958E-02
    5    7    0.21484627E-01  0.23849624E-02
    6    7   -0.55039797E-03 -0.29477877E-02
    7    7   -0.16408630E-01  0.30789184E-03
    8    7    0.17674488E-01  0.13443109E-02
    9    7   -0.29309712E-02  0.79030613E-04
   10    7    0.17760717E-02  0.11489872E-02
   11    7   -0.51342953E-03  0.19071443E-02
   12    7   -0.21692820E-03 -0.55198475E-03
   13    7    0.10745909E-02 -0.60760799E-02
   14    7   -0.22922418E-02  0.32694225E-02
   15    7    0.66466222E-03  0.29876590E-03
   16    7    0.24372494E-02  0.31993061E-02
    1    8    0.19162619E-01  0.36054903E-03
    2    8    0.71597685E-01 -0.14208568E-02
    3    8   -0.18994304E-01 -0.12954760E-02
    4    8   -0.71337727E-01 -0.13090288E-02
    5    8    0.15986446E-01  0.64844117E-03
    6    8    0.27774794E-02 -0.69415341E-03
    7    8    0.21266587E-01  0.37223857E-03
    8    8   -0.16031878E-01  0.26047764E-03
    9    8    0.30003940E-02 -0.16381786E-02
   10    8   -0.89511285E-03  0.11821211E-02
   11    8    0.34059424E-03 -0.22965575E-02
   12    8   -0.16316232E-03 -0.15364968E-02
   13    8    0.61461581E-02  0.47063896E-02
   14    8   -0.45820715E-02 -0.33687571E-03
   15    8   -0.10566623E-02 -0.46543200E-02
   16    8    0.40699139E-03  0.15647491E-02
    1    9    0.17567988E-02  0.80288992E-03
    2    9    0.52848358E-03  0.20094289E-02
    3    9   -0.85584444E-03 -0.13308006E-02
    4    9    0.10002439E-02 -0.19472627E-02
    5    9   -0.27030442E-03  0.37446970E-03
    6    9   -0.47765962E-03 -0.11621859E-02
    7    9   -0.58404117E-04 -0.51692187E-04
    8    9    0.98630866E-03 -0.66445456E-03
    9    9    0.13498615E-01  0.29832751E-03
   10    9    0.14443181E-01 -0.13840463E-03
   11    9    0.94641910E-02 -0.46925220E-03
   12    9    0.72286470E-02 -0.23169371E-03
   13    9   -0.40206818E-01  0.47876838E-03
   14    9    0.14063921E-01 -0.94340013E-03
   15    9    0.34214022E-01  0.18917476E-03
   16    9    0.33967480E-01  0.10260446E-02
    1   10   -0.81982208E-04 -0.16028767E-02
    2   10    0.39144719E-03  0.55405078E-03
    3   10    0.27019439E-03  0.10801216E-02
    4   10   -0.13255808E-02  0.11212067E-02
    5   10   -0.20913704E-02  0.98760326E-03
    6   10    0.64371073E-04  0.44528767E-03
    7   10    0.12110846E-02 -0.38368035E-05
    8   10   -0.34080183E-03 -0.57001236E-03
    9   10    0.76785644E-01  0.15998172E-02
   10   10    0.27950391E-01  0.68107067E-03
   11   10    0.77158175E-01 -0.38306227E-03
   12   10    0.79334858E-01 -0.28378434E-03
   13   10    0.14618999E-01 -0.19820923E-02
   14   10   -0.39877688E-01 -0.13057381E-04
   15   10    0.34799630E-01  0.13489951E-02
   16   10    0.33198488E-01  0.68920494E-03
    1   11    0.70502728E-03 -0.12925208E-02
    2   11    0.13170139E-02 -0.11001657E-02
    3   11    0.49468471E-03 -0.26391404E-03
    4   11   -0.20870612E-02  0.14805352E-02
    5   11   -0.24473457E-03  0.13933709E-03
    6   11   -0.24049118E-03 -0.55527316E-03
    7   11    0.59990299E-03  0.10745244E-03
    8   11    0.20507323E-03  0.33453750E-03
    9   11    0.75896656E-02 -0.14018019E-02
   10   11    0.13105498E-01  0.69127811E-03
   11   11    0.13442009E-01 -0.11503117E-03
   12   11    0.94008382E-02  0.59620406E-03
   13   11    0.14370926E+00  0.91058109E-03
   14   11    0.14446691E+00  0.14697909E-02
   15   11    0.16521889E+00 -0.18508212E-03
   16   11   -0.12792278E+00 -0.41081827E-03
    1   12   -0.30676931E-03  0.82366057E-03
    2   12   -0.20241950E-02 -0.10106685E-02
    3   12    0.59414604E-03  0.99984142E-03
    4   12    0.11893625E-02  0.58305516E-03
    5   12    0.60736506E-03 -0.53370250E-03
    6   12    0.13626836E-02  0.15080551E-02
    7   12    0.61477402E-03 -0.29863358E-03
    8   12   -0.24708629E-03 -0.10704812E-02
    9   12    0.10490064E-01 -0.28597904E-03
   10   12    0.13127454E-01 -0.93329868E-03
   11   12    0.80813950E-02  0.49483968E-03
   12   12    0.12656598E-01 -0.93900736E-05
   13   12    0.14370369E+00  0.39795575E-03
   14   12    0.14437148E+00 -0.22965332E-02
   15   12   -0.12771879E+00  0.74779454E-03
   16   12    0.16400921E+00  0.21016526E-03
    1   13    0.57490796E-03 -0.88058781E-03
    2   13    0.68548064E-03 -0.12178234E-02
    3   13   -0.61290741E-03  0.18855414E-02
    4   13   -0.24971872E-02  0.68693608E-03
    5   13    0.11603916E-02 -0.21431783E-02
    6   13   -0.13904586E-03  0.10667348E-02
    7   13   -0.11088893E-02 -0.78105256E-03
    8   13    0.20330854E-02 -0.96993747E-03
    9   13   -0.35335552E-01 -0.42016202E-03
   10   13    0.13192596E+00 -0.61267483E-03
   11   13   -0.45039671E-01  0.34177694E-03
   12   13   -0.43319281E-01  0.56267732E-03
   13   13   -0.16684174E-01 -0.29721006E-03
   14   13    0.14768036E-02 -0.32996764E-02
   15   13    0.21483532E-01  0.33512104E-02
   16   13    0.16135128E-01  0.86211439E-03
    1   14   -0.11847970E-02 -0.15567797E-02
    2   14   -0.60214023E-03  0.13995963E-03
    3   14    0.41714231E-03  0.96867501E-03
    4   14    0.32116859E-02 -0.39101065E-03
    5   14    0.20703799E-02 -0.29655077E-02
    6   14   -0.47121203E-03  0.42957237E-03
    7   14   -0.12922576E-02  0.19966000E-02
    8   14    0.78930094E-03  0.18980705E-02
    9   14   -0.26537346E+00 -0.86729968E-03
   10   14    0.14083514E+00 -0.90947939E-03
   11   14   -0.13381495E+00  0.80893636E-03
   12   14   -0.13486429E+00  0.56832553E-03
   13   14   -0.75692480E-02  0.23861073E-02
   14   14    0.61099433E-02  0.34466908E-03
   15   14   -0.63437092E-02 -0.21912524E-02
   16   14   -0.47929222E-02  0.27384143E-03
    1   15    0.44692641E-02  0.37043445E-02
    2   15   -0.25536848E-02  0.48875428E-05
    3   15    0.75883609E-03  0.16920731E-02
    4   15    0.14259467E-02  0.33057222E-04
[...]
   10    5   -0.12641284E-03 -0.16015249E-03 -0.23648237E-03 -0.11937828E-03  0.24608023E-03  0.12189263E-03
   11    5   -0.60109392E-04 -0.16491894E-03  0.93242946E-04 -0.18667911E-03 -0.24629834E-03  0.22966189E-03
   12    5   -0.26798052E-04 -0.34959623E-04  0.11479316E-03 -0.26899442E-03  0.37484636E-03  0.74773738E-04
   13    5    0.70364213E-05  0.70999961E-04  0.17957930E-03 -0.23373640E-03  0.17243874E-03  0.61001113E-05
   14    5   -0.79232271E-04 -0.23776964E-04 -0.28373575E-03 -0.95009762E-04 -0.29316212E-03  0.97242011E-04
   15    5    0.13195791E-03 -0.17103093E-03  0.20002100E-03 -0.16115281E-03 -0.17593697E-03 -0.95984268E-04
   16    5    0.57952035E-04 -0.10996975E-03 -0.47216584E-03  0.23009683E-03  0.15604380E-03 -0.12673639E-04
    1    6    0.25360965E-02  0.30413327E-03 -0.59451406E-02 -0.25579835E-03 -0.57549537E-02 -0.11384444E-03
    2    6   -0.97191599E-02 -0.83017798E-04 -0.17087350E-01 -0.11465492E-03 -0.17124299E-01  0.22832866E-03
    3    6   -0.65705527E-02 -0.17179588E-03 -0.77605337E-02 -0.42214642E-03 -0.11743587E-01  0.10984257E-03
    4    6   -0.64220268E-02 -0.17071875E-03 -0.11747028E-01  0.62839630E-04 -0.77594474E-02  0.15754830E-03
    5    6   -0.16170433E-02  0.45418039E-05 -0.11230558E-02 -0.51324262E-03 -0.12389170E-02  0.24569569E-03
    6    6    0.27264166E-02 -0.76951515E-04 -0.27188941E-02  0.14256899E-03 -0.27369355E-02 -0.20658205E-04
    7    6   -0.78641111E-02 -0.65473763E-04  0.64301979E-02 -0.87434561E-05 -0.75904334E-02 -0.15119162E-03
    8    6   -0.78714083E-02  0.10512417E-03 -0.74733105E-02  0.24977763E-03  0.65257407E-02 -0.38149563E-04
    9    6    0.22855925E-03 -0.22005406E-03  0.19046777E-03  0.33884459E-03 -0.40900955E-03  0.21530658E-03
   10    6    0.38022945E-03 -0.73840484E-04 -0.37867639E-04 -0.23472220E-03 -0.10912306E-03  0.29320669E-04
   11    6    0.15381785E-03  0.17317113E-03 -0.11861525E-03 -0.26288010E-03 -0.92790903E-04  0.16728262E-03
   12    6   -0.20623318E-04 -0.51386990E-04 -0.33672130E-03 -0.19541576E-03 -0.24369238E-04  0.32084933E-03
   13    6    0.43374652E-04 -0.11908528E-03 -0.12961146E-03 -0.27017355E-03 -0.43559812E-04  0.48201766E-03
   14    6   -0.22878181E-03  0.13223433E-03  0.13087354E-03 -0.47570306E-03  0.40834878E-03  0.17035871E-03
   15    6   -0.13333429E-03 -0.13252811E-03 -0.14886098E-03  0.92133664E-04  0.25481469E-03  0.61008575E-05
   16    6    0.93550974E-04  0.18137469E-03  0.17068769E-04  0.11305918E-03 -0.35899298E-03 -0.21599292E-03
    1    7   -0.44257399E-02 -0.35296640E-03 -0.32908692E-02  0.15629136E-03  0.39488309E-02  0.18226972E-03
    2    7   -0.19237044E-02  0.21748742E-04  0.10452949E-02  0.45283571E-04  0.60958630E-02 -0.15278048E-03
    3    7   -0.29716135E-02 -0.19006291E-03  0.13390333E-01  0.21500310E-03  0.86694801E-02 -0.33348180E-03
    4    7   -0.49227777E-02  0.32946412E-04  0.10380096E-01  0.18692835E-03  0.12605895E-01 -0.44127286E-03
    5    7   -0.26146580E-02 -0.26056841E-03  0.10683253E-02  0.19094324E-03  0.42936872E-02 -0.36119945E-03
    6    7   -0.89358492E-03  0.23984825E-04 -0.80505662E-02 -0.11858835E-03 -0.54801767E-02  0.20329874E-03
    7    7    0.42498742E-02 -0.59542896E-04 -0.42129598E-02  0.11368646E-04 -0.20705573E-02  0.46930485E-05
    8    7   -0.10685701E-03  0.67140343E-04  0.32520064E-02  0.21637480E-03  0.21508031E-02 -0.72482858E-04
    9    7    0.17733935E-03  0.12562906E-03  0.51649730E-04  0.22076518E-04  0.19722905E-03 -0.45556134E-03
   10    7    0.87325661E-04 -0.23189016E-03  0.15429790E-03 -0.22306251E-03 -0.16872887E-03  0.19831070E-04
   11    7    0.90238954E-05 -0.25805728E-03  0.22131273E-05  0.40089057E-04  0.19946429E-03 -0.38330897E-04
   12    7   -0.32936400E-04 -0.24029105E-03 -0.11370697E-03  0.15269301E-03 -0.19658648E-04 -0.68134971E-04
   13    7    0.19918606E-03 -0.32444254E-04 -0.21910822E-03  0.78097236E-06 -0.12566626E-03 -0.21884666E-03
   14    7   -0.12847592E-03 -0.26272528E-04 -0.24546495E-03  0.28989025E-03  0.21254264E-03 -0.12009934E-04
   15    7   -0.20141400E-03 -0.22901269E-04 -0.27913709E-04 -0.26982426E-03 -0.61213874E-04  0.35526008E-03
   16    7   -0.21200320E-04 -0.25700734E-04  0.30013289E-03  0.22693346E-03 -0.16925144E-03 -0.16354477E-03
    1    8   -0.41842212E-02  0.16314664E-03  0.38409332E-02  0.33932018E-03 -0.34665276E-02  0.41301792E-04
    2    8   -0.19968890E-02  0.18110465E-03  0.59583737E-02  0.15014309E-04  0.10033681E-02  0.18511974E-03
    3    8   -0.48523755E-02  0.17431438E-03  0.12655797E-01  0.15588831E-03  0.10298183E-01 -0.11350641E-03
    4    8   -0.28779882E-02  0.31209744E-03  0.87411319E-02  0.15276476E-03  0.13451539E-01 -0.24556853E-04
    5    8   -0.25250657E-02  0.23402756E-03  0.41783829E-02  0.43093318E-03  0.96735225E-03  0.63852989E-04
    6    8   -0.90931376E-03 -0.25801787E-04 -0.53996690E-02 -0.72242745E-04 -0.80316642E-02 -0.27105839E-03
    7    8   -0.16517817E-03 -0.38552823E-04  0.21919113E-02  0.43792200E-04  0.34401543E-02 -0.20481178E-03
    8    8    0.40989504E-02 -0.33267993E-04 -0.20121513E-02  0.18018989E-04 -0.41480556E-02  0.39274712E-04
    9    8   -0.17812455E-03  0.27213747E-03 -0.15251509E-05 -0.20507519E-03  0.41126299E-03 -0.51182115E-04
   10    8   -0.76795085E-04  0.19926729E-03  0.89357037E-04  0.30122845E-03 -0.46281755E-04 -0.37560049E-04
   11    8   -0.39139328E-03  0.19300377E-03 -0.38084444E-05  0.37533801E-03 -0.26856436E-05 -0.55340779E-04
   12    8    0.43485043E-04  0.32287996E-03  0.96829506E-04  0.23342193E-03 -0.20783308E-03 -0.17129899E-04
   13    8   -0.10781977E-03  0.26107150E-03  0.17253451E-03  0.37650922E-03  0.18915154E-03  0.10457279E-03
   14    8    0.20652583E-03 -0.58393099E-04  0.25931493E-03 -0.73495836E-04 -0.14125237E-03 -0.10702166E-03
   15    8    0.77057355E-04  0.11010779E-04 -0.14009404E-03  0.24255882E-03  0.12827763E-04 -0.37724371E-03
   16    8    0.11108455E-04 -0.50086440E-04  0.12215022E-03 -0.38846517E-03  0.89776869E-04  0.14364986E-03
    1    9    0.12891665E-03  0.91853636E-04  0.51388504E-04 -0.20801763E-03 -0.10350662E-03 -0.17579419E-03
    2    9   -0.11134764E-03 -0.13262362E-03  0.75662566E-04 -0.11647964E-03 -0.12462034E-03  0.11715870E-03
    3    9    0.13362272E-03  0.22404181E-03  0.10654951E-03  0.26414892E-03  0.60789080E-03 -0.13108703E-04
    4    9    0.19709093E-03  0.97387000E-05 -0.14286761E-03  0.41005720E-04 -0.22876677E-03 -0.36941566E-03
    5    9    0.16114353E-03  0.26179170E-05  0.59053495E-04  0.13569947E-04  0.51226968E-03 -0.13426313E-03
    6    9    0.12170287E-03  0.63681067E-04 -0.39267515E-03 -0.61473855E-04 -0.27846554E-04 -0.17876224E-04
    7    9   -0.30148253E-03  0.66660973E-04  0.32589007E-03  0.33572841E-03 -0.20456361E-03  0.10619188E-03
    8    9    0.12033711E-03 -0.14775513E-03  0.61553245E-04 -0.55770129E-04  0.72127792E-04  0.32383220E-04
    9    9   -0.57775010E-02 -0.79571543E-04  0.48791672E-02  0.45348236E-04  0.49737215E-02  0.51799489E-04
   10    9    0.56362145E-02  0.11724986E-03 -0.26762465E-02 -0.79118714E-04 -0.26603992E-02  0.98702634E-04
   11    9    0.26004728E-03 -0.17266745E-04 -0.19883260E-02  0.96225942E-04  0.19858677E-02 -0.84922052E-04
   12    9    0.51984395E-03  0.11808372E-03  0.22780882E-02  0.51843542E-04 -0.17912595E-02 -0.10486945E-03
   13    9   -0.14458082E-01 -0.30498982E-04 -0.12878386E-02  0.72265592E-04 -0.12670789E-02  0.14621540E-03
   14    9   -0.63905733E-02 -0.15917289E-03  0.86635807E-02 -0.44040369E-03  0.87100413E-02  0.62788923E-04
   15    9    0.54201022E-02 -0.13413636E-03 -0.48670971E-02 -0.20626987E-03  0.29775648E-02 -0.84218664E-04
   16    9    0.53139173E-02  0.11265477E-03  0.30070994E-02  0.48241386E-03 -0.48755243E-02  0.92166627E-04
    1   10   -0.49353565E-04  0.90709585E-05 -0.16315512E-03  0.46675382E-04  0.14206090E-03 -0.12661518E-03
    2   10    0.10374542E-03  0.98256198E-05 -0.34325157E-04 -0.20859206E-03 -0.91327501E-04  0.19250282E-04
    3   10   -0.16170885E-04 -0.20108868E-03 -0.10573068E-03 -0.11732442E-03 -0.12710676E-03  0.36828427E-03
    4   10    0.39467414E-04  0.27132464E-04  0.13715587E-03 -0.25076255E-03  0.10874640E-03 -0.20503040E-04
    5   10    0.16170675E-03  0.92611734E-04  0.22375573E-03  0.15734208E-03 -0.37802365E-03 -0.12842194E-03
    6   10   -0.57651513E-05 -0.31827096E-04  0.27677757E-03  0.31267313E-03  0.10375357E-03 -0.25794254E-03
    7   10   -0.20315135E-03 -0.14153786E-03  0.23084421E-04 -0.41637072E-04 -0.19460253E-03  0.11800827E-03
    8   10    0.32449488E-04  0.17954772E-03 -0.99945345E-04 -0.16853910E-03  0.14169449E-04 -0.42092982E-04
    9   10    0.31456422E-02 -0.61913704E-04 -0.32069697E-02  0.11521850E-03 -0.31699365E-02 -0.27262539E-03
   10   10    0.10183794E-01  0.35169503E-04 -0.10103398E-01 -0.69115648E-04 -0.10154254E-01 -0.20507306E-03
   11   10    0.31800755E-02 -0.16502436E-03 -0.32006558E-02 -0.21319995E-03 -0.31590535E-02 -0.50190313E-04
   12   10    0.32034155E-02  0.58375970E-04 -0.30976255E-02  0.91773645E-04 -0.31570448E-02 -0.44558111E-04
   13   10   -0.64333511E-02  0.16740277E-04 -0.84891532E-02 -0.19502467E-03 -0.88268672E-02 -0.17656206E-03
   14   10   -0.14551725E-01  0.51700657E-04  0.13665025E-02 -0.13088844E-03  0.13717965E-02  0.25609973E-03
   15   10    0.53903046E-02  0.62085553E-04 -0.31988115E-02 -0.90336523E-04  0.49013829E-02  0.14671839E-04
   16   10    0.54255748E-02 -0.17880582E-03  0.49999500E-02  0.87770215E-04 -0.30453351E-02  0.26192277E-03
    1   11   -0.67095169E-04  0.13845718E-03 -0.33282233E-03 -0.12440402E-03 -0.43109227E-04 -0.11011166E-03
    2   11   -0.27091392E-03 -0.33556606E-03  0.10543646E-03  0.31043376E-03 -0.26658424E-03 -0.15958504E-03
    3   11   -0.45613143E-05  0.25044147E-03  0.16757397E-04 -0.11126928E-03  0.17440284E-04  0.39382573E-03
    4   11    0.10188299E-03  0.64926597E-04  0.10114505E-03  0.15052119E-03  0.27936675E-03  0.36578373E-03
    5   11   -0.20312954E-03  0.75571339E-04 -0.12274358E-03 -0.25217711E-03  0.28833966E-03  0.35919840E-03
    6   11   -0.17908973E-04 -0.30381699E-04 -0.16183994E-03 -0.88926459E-04 -0.46026883E-04  0.18164553E-03
    7   11   -0.47974918E-04  0.13594239E-03  0.31327432E-03  0.20451743E-03 -0.49444905E-03 -0.23182916E-04
    8   11    0.22458479E-03 -0.21620382E-04 -0.31325823E-03 -0.31364523E-03  0.60471457E-03  0.13435142E-03
    9   11   -0.21651282E-02  0.13175296E-03 -0.18097319E-02 -0.19650166E-03 -0.26530672E-03  0.14992504E-04
   10   11    0.27961760E-02  0.20819564E-03 -0.26245081E-02 -0.78210730E-04 -0.56364988E-02  0.17146791E-03
   11   11   -0.51467876E-02  0.13877760E-03  0.51086790E-02 -0.16536766E-03  0.58711144E-02 -0.16623205E-03
   12   11    0.17969021E-02 -0.28943653E-03  0.19701682E-02  0.22513819E-03 -0.29976937E-03 -0.18597779E-03
   13   11    0.90926304E-02  0.45576159E-04  0.13253917E-01  0.50243309E-04 -0.18961982E-01 -0.23916086E-03
   14   11    0.90853345E-02  0.42324206E-04  0.19030103E-01  0.18610998E-04 -0.13275094E-01 -0.12039953E-03
   15   11    0.17557449E-02 -0.14412303E-03 -0.11734216E-01  0.26690966E-03  0.11773558E-01 -0.13257515E-03
   16   11   -0.13101273E-01  0.10377989E-03  0.14439349E-01  0.90732620E-04 -0.14527394E-01  0.12848462E-03
    1   12   -0.55840424E-04  0.20813936E-04 -0.11798399E-03  0.22280395E-03  0.25918992E-03  0.23230494E-04
    2   12    0.17674252E-03  0.39308471E-03  0.26156783E-03  0.16375227E-03  0.11629347E-03 -0.89401676E-04
    3   12    0.12884280E-03 -0.24028245E-03 -0.58072094E-04 -0.38228745E-03 -0.23839579E-03  0.18461454E-03
    4   12    0.79425803E-04 -0.18663356E-03  0.35995630E-04 -0.44835432E-03 -0.22537767E-03  0.26359847E-03
    5   12   -0.16758157E-05 -0.10835388E-03  0.40321360E-03 -0.27097470E-03 -0.49639066E-04  0.28552297E-03
    6   12   -0.15959765E-03 -0.70144437E-04  0.53632710E-03 -0.73991826E-05 -0.52098172E-03 -0.22060257E-03
    7   12    0.21067599E-03  0.19236716E-03 -0.12667402E-03  0.55340519E-04  0.10737955E-03 -0.15595198E-03
    8   12    0.36952002E-04 -0.23094720E-03 -0.11780346E-03 -0.23697681E-03  0.42873999E-03  0.19547092E-03
    9   12   -0.20505207E-02  0.32152942E-03 -0.40252260E-03  0.91938928E-04 -0.19040652E-02  0.11438090E-03
   10   12    0.25004314E-02 -0.13863114E-03 -0.59378375E-02  0.21441867E-04 -0.25739016E-02  0.12435933E-03
   11   12    0.19457130E-02  0.15936695E-03 -0.19267424E-03  0.43045407E-04  0.20821054E-02  0.38032594E-04
   12   12   -0.49569218E-02 -0.12255579E-04  0.58447246E-02  0.41442699E-04  0.48710081E-02  0.20690645E-03
   13   12    0.90837443E-02  0.23674990E-03 -0.19143382E-01  0.25970105E-03  0.13302441E-01  0.28503743E-04
   14   12    0.92454006E-02 -0.28879160E-03 -0.13127099E-01  0.87189138E-04  0.18999363E-01 -0.23212900E-04
   15   12   -0.13215954E-01  0.15916440E-04 -0.14388704E-01  0.11826032E-03  0.14385090E-01 -0.10550111E-03
   16   12    0.17133163E-02  0.25545854E-04  0.11737502E-01 -0.17589141E-03 -0.11626709E-01 -0.10861279E-03
    1   13   -0.11422733E-03  0.16956684E-03 -0.27546737E-03  0.15573708E-04 -0.36780516E-04 -0.21166830E-03
    2   13    0.22953467E-03 -0.11271751E-03  0.39823226E-03  0.47921912E-04 -0.88125492E-04  0.12428805E-03
    3   13    0.97266092E-04 -0.12405141E-04  0.19291564E-03 -0.13345847E-03  0.26091554E-03  0.32591302E-03
    4   13    0.68213936E-04 -0.15027405E-03 -0.10072729E-03 -0.35285662E-03 -0.92448796E-04  0.30334465E-03
    5   13    0.22279542E-04  0.89771465E-04  0.21769361E-03 -0.45160305E-04  0.21989403E-03  0.22812253E-03
    6   13   -0.11578891E-03 -0.12443744E-03 -0.13060757E-03 -0.38400465E-03 -0.12073186E-03 -0.41329458E-04
    7   13    0.12055074E-03 -0.60379514E-04  0.21876125E-03  0.11114817E-03 -0.33773729E-03 -0.30815271E-03
    8   13    0.18900540E-03  0.26725759E-04 -0.43112922E-04 -0.80975810E-04  0.26380229E-03  0.14021778E-03
    9   13    0.25976933E-02  0.22694721E-03 -0.23684244E-02  0.35891733E-04 -0.23022110E-02 -0.24755920E-03
   10   13   -0.15670556E-02  0.50772686E-04 -0.23696285E-01  0.11911532E-03 -0.23612671E-01  0.11530641E-03
   11   13   -0.11515951E-02 -0.22518271E-03 -0.19046279E-02 -0.88516017E-04  0.74900562E-02 -0.47937660E-03
   12   13   -0.10207443E-02  0.16211320E-03  0.75813862E-02  0.59530180E-03 -0.19912128E-02 -0.65855917E-04
   13   13    0.20074316E-02 -0.68999755E-05 -0.41477954E-02  0.47000053E-04 -0.40872195E-02 -0.20571050E-04
   14   13    0.83412489E-03 -0.95084064E-04 -0.36791250E-02 -0.12763668E-03 -0.37602483E-02  0.68809858E-04
   15   13   -0.19765248E-02  0.10703540E-03  0.27863724E-03 -0.79459815E-04  0.45921016E-02  0.25991065E-04
   16   13   -0.19880087E-02 -0.20332552E-03  0.46419654E-02 -0.12746740E-04  0.33524588E-03  0.16841969E-03
    1   14   -0.36290581E-04 -0.11745262E-03 -0.45085830E-03  0.15668786E-04  0.14349910E-03  0.27129284E-03
    2   14    0.33638712E-03  0.28619121E-03  0.85197307E-05 -0.22588642E-03  0.75256968E-04 -0.22336291E-04
    3   14    0.67380676E-04  0.14329533E-03  0.16127619E-03 -0.24444026E-03 -0.29133086E-03 -0.19890236E-04
    4   14    0.24553947E-03  0.20947047E-03 -0.44356120E-04 -0.39067169E-03  0.65727662E-04  0.34302214E-03
    5   14    0.16334619E-03 -0.12097278E-04  0.61309095E-04 -0.18826191E-03 -0.24149264E-04  0.32591347E-03
    6   14   -0.57140343E-04 -0.15347630E-04  0.28518890E-03 -0.20576150E-03  0.15858492E-04  0.32904793E-03
    7   14    0.50138257E-04 -0.16894990E-03 -0.65253709E-04 -0.11728309E-03 -0.22618862E-03 -0.80362349E-04
    8   14   -0.18100489E-03  0.13209571E-03  0.14080711E-04  0.23741135E-03  0.14194893E-03 -0.23020290E-03
    9   14    0.26386432E-02 -0.30300599E-03 -0.58946033E-02  0.25661246E-03 -0.60728772E-02  0.11940014E-03
   10   14   -0.93592452E-02  0.79372358E-04 -0.17143383E-01  0.11234042E-03 -0.17110852E-01 -0.22713821E-03
   11   14   -0.63060124E-02  0.17653262E-03 -0.77394526E-02  0.41790313E-03 -0.11935541E-01 -0.10610969E-03
   12   14   -0.64557076E-02  0.16052293E-03 -0.11937253E-01 -0.70980158E-04 -0.77395816E-02 -0.15597088E-03
   13   14   -0.15100299E-02 -0.34491002E-05 -0.12788826E-02  0.50046073E-03 -0.11573139E-02 -0.23744541E-03
   14   14    0.25547746E-02  0.79321358E-04 -0.25554990E-02 -0.14352496E-03 -0.25340058E-02  0.17639147E-04
   15   14   -0.79175232E-02  0.60188187E-04  0.64131378E-02  0.15470382E-04 -0.74633578E-02  0.15342763E-03
   16   14   -0.79035631E-02 -0.98278721E-04 -0.75621112E-02 -0.25073592E-03  0.63191484E-02  0.34644188E-04
    1   15   -0.31441157E-03 -0.19519342E-03  0.13773478E-03  0.29510557E-03  0.29428475E-04 -0.23600370E-03
    2   15   -0.19608130E-03 -0.20543981E-03 -0.64475128E-04 -0.12839872E-03 -0.17620491E-04  0.61689868E-04
    3   15   -0.92822888E-04 -0.39930249E-03 -0.27966631E-03 -0.15192400E-03 -0.10791992E-04 -0.20292373E-04
    4   15   -0.35044664E-03 -0.50549314E-03 -0.72849354E-04  0.14393635E-03 -0.16191936E-04 -0.13205647E-03
    5   15   -0.26554477E-03 -0.16329910E-03 -0.46350556E-04 -0.32187211E-04  0.44744117E-05 -0.16072836E-03
    6   15    0.23726191E-03  0.39457072E-04  0.12747935E-03  0.20454171E-03  0.69045144E-04  0.58292202E-04
    7   15    0.22808680E-03  0.13922438E-03  0.95017484E-04 -0.26630759E-03  0.12635215E-03  0.36078176E-03
    8   15    0.46768624E-04  0.50016369E-04  0.65329447E-05  0.19576967E-03 -0.68311939E-04 -0.32833073E-03
    9   15   -0.42625630E-02  0.34488140E-03 -0.33688817E-02 -0.14833909E-03  0.39530052E-02 -0.18822562E-03
   10   15   -0.20519153E-02 -0.23995200E-04  0.10490508E-02 -0.47766645E-04  0.58746532E-02  0.14884591E-03
   11   15   -0.29220866E-02  0.18716205E-03  0.13311741E-01 -0.20662587E-03  0.88342882E-02  0.33167140E-03
   12   15   -0.50399270E-02 -0.37985066E-04  0.10201971E-01 -0.18661026E-03  0.12640409E-01  0.44681329E-03
   13   15   -0.25624869E-02  0.25597014E-03  0.83979770E-03 -0.19433582E-03  0.41188482E-02  0.36715076E-03
   14   15   -0.85426519E-03 -0.20412493E-04 -0.80953336E-02  0.11430186E-03 -0.52510200E-02 -0.19617263E-03
   15   15    0.41010858E-02  0.67621036E-04 -0.41392384E-02 -0.19649347E-04 -0.20636124E-02 -0.72233897E-05
   16   15   -0.14826213E-03 -0.64872536E-04  0.35936678E-02 -0.21955441E-03  0.20680110E-02  0.72497741E-04
    1   16    0.35294862E-04  0.44139503E-03  0.22366670E-03 -0.19624161E-03 -0.21840968E-03 -0.13283776E-03
    2   16   -0.26836400E-04  0.66056384E-04 -0.27729073E-03  0.81706397E-04  0.14083587E-03 -0.38516442E-04
    3   16    0.94014089E-05  0.74309272E-04 -0.29842403E-04  0.40796821E-03 -0.18279602E-03 -0.23442043E-03
    4   16   -0.13105471E-03  0.37610121E-03  0.87411212E-04  0.40260575E-03 -0.66399156E-04 -0.98930645E-04
    5   16    0.38012012E-04  0.31691262E-03 -0.29335374E-03  0.20157041E-03 -0.45058829E-03 -0.12806280E-03
    6   16   -0.10360459E-03 -0.13240388E-04  0.31889301E-04  0.14590336E-03  0.21522777E-04 -0.15022574E-03
    7   16   -0.46826741E-04 -0.35179570E-04 -0.10155250E-03  0.16365496E-03  0.29267727E-03 -0.33987681E-04
    8   16    0.19956267E-04 -0.17974694E-03 -0.63238623E-04 -0.33470901E-03 -0.27163860E-04  0.20871165E-03
    9   16   -0.44992324E-02 -0.14955210E-03  0.40653935E-02 -0.34010539E-03 -0.31972886E-02 -0.44907014E-04
   10   16   -0.19754836E-02 -0.18205539E-03  0.60018478E-02 -0.15177658E-04  0.10931868E-02 -0.18375889E-03
   11   16   -0.51187897E-02 -0.16658953E-03  0.12589633E-01 -0.16357575E-03  0.10288613E-01  0.12433225E-03
   12   16   -0.30154267E-02 -0.30728655E-03  0.87633306E-02 -0.15365023E-03  0.13256508E-01  0.15439095E-04
   13   16   -0.26521980E-02 -0.22714810E-03  0.42363059E-02 -0.43511396E-03  0.93049135E-03 -0.70423861E-04
   14   16   -0.83762113E-03  0.22950457E-04 -0.53392388E-02  0.74900044E-04 -0.81151992E-02  0.27532915E-03
   15   16   -0.94298293E-04  0.35901829E-04  0.20308285E-02 -0.42499671E-04  0.34100928E-02  0.20366748E-03
   16   16    0.42530219E-02  0.29119888E-04 -0.21177736E-02 -0.15522991E-04 -0.41991844E-02 -0.35022126E-04
